thermo          1
thermo_style    custom step temp etotal pe ke v_eb v_ew v_ehb v_elp v_ev v_epqeq press pxx pyy pzz pxy pxz pyz
dump            1 all custom 1 NVT50K.lammps id type xu yu zu vx vy vz mol sx sy sz q
dump_modify     1 element H O Cl Na
velocity        all create 300.0 12345678 dist uniform
fix             1 all nvt temp  300.0 300.0 100.0
run             10000
Neighbor list info ...
  update every 1 steps, delay 10 steps, check yes
  max neighbors/atom: 2000, page size: 100000
  master list distance cutoff = 14
  ghost atom cutoff = 14
  binsize = 7, bins = 4 4 4
  3 neighbor lists, perpetual/occasional/extra = 3 0 0
  (1) pair coul/pqeqgauss, perpetual
      attributes: half, newton off, ghost
      pair build: half/bin/newtoff/ghost
      stencil: half/ghost/bin/3d/newtoff
      bin: standard
  (2) pair rexpon, perpetual, copy from (1)
      attributes: half, newton off, ghost
      pair build: copy
      stencil: none
      bin: none
  (3) fix pqeq, perpetual, copy from (1)
      attributes: half, newton off, ghost
      pair build: copy
      stencil: none
      bin: none
Per MPI rank memory allocation (min/avg/max) = 134.7 | 134.9 | 134.9 Mbytes
Step Temp TotEng PotEng KinEng v_eb v_ew v_ehb v_elp v_ev v_epqeq Press Pxx Pyy Pzz Pxy Pxz Pyz 
       0          300   -136014.78    -136927.8    913.02212   -223855.79    112655.33   -8789.7662    4975.7677    288.46207   -22201.809   -2190.8709    2545.1129   -5969.6952   -3148.0305   -1183.0657    413.11705   -2342.1086 
       1    203.51202   -135544.83    -136164.2    619.36993   -209082.69    99057.131   -9634.8671     4930.601    969.94708   -22404.323   -1966.2864   -2775.5078   -3339.6809    216.32953   -14.556784   -385.21055   -542.47554 
       2    204.95911   -135544.96   -136168.74      623.774    -209083.5    99058.423   -9637.0693     4930.858    969.92482   -22407.374   -1967.5652   -2743.9656   -3342.3323    183.60239    53.152449   -395.28692   -483.50797 
       3    207.33189   -135544.95   -136175.94    630.99534   -209083.49    99060.208    -9642.168    4931.2498     969.9249   -22411.668   -2011.6394   -2729.6382   -3376.3975    71.117488    141.54207   -405.33874   -409.06303 
       4    210.50931   -135544.89   -136185.56    640.66552   -209083.48    99063.091    -9649.881    4931.7723    969.92501   -22416.982   -2060.5248   -2702.2667   -3402.7877   -76.519975    242.48043   -414.88917   -319.88263 
       5    214.34451   -135544.79   -136197.13     652.3376   -209083.48    99066.971   -9659.8997    4932.4171    969.92506   -22423.064   -2120.1333   -2675.2734   -3424.2365   -260.89006    351.73316   -423.58903   -222.36121 
       6     218.6743   -135544.64   -136210.16    665.51492   -209083.47    99071.733   -9671.8599    4933.1747    969.92496   -22429.658   -2187.2946   -2653.1955   -3434.8326   -473.85576    463.09814   -431.82975   -122.76278 
       7    223.32799   -135544.45   -136224.13    679.67799   -209083.46    99077.242   -9685.3583     4934.035    969.92514   -22436.514   -2259.1036   -2639.9287   -3430.7177   -706.66454     571.1008   -439.62731   -27.501811 
       8    228.13595   -135544.22   -136238.53    694.31056   -209083.45    99083.371   -9699.9668    4934.9881     969.9252   -22443.398   -2331.9175   -2636.6702   -3408.3182   -950.76425    670.01804   -446.32134    57.212919 
       9    232.93769   -135543.95   -136252.88    708.92422   -209083.44    99089.972   -9715.2519    4936.0243    969.92542   -22450.104   -2403.0177   -2644.3316   -3366.3766    -1198.345    755.87157   -452.00829    125.69604 
      10    237.58885   -135543.64   -136266.72     723.0796   -209083.43    99096.894    -9730.792    4937.1349     969.9256   -22456.452    -2469.702   -2661.1831   -3305.4737   -1442.4492    825.30225    -456.3265    173.05159 
      11    241.96649   -135543.29    -136279.7    736.40251   -209083.43     99103.98   -9746.1941    4938.3121    969.92564   -22462.292   -2529.8425   -2684.9446    -3227.967    -1676.616    876.80918   -459.60775    194.69585 
      12    245.97238    -135542.9    -136291.5    748.59409   -209083.42    99111.057   -9761.1095    4939.5492    969.92579   -22467.504   -2582.3292   -2712.5126   -3137.8658   -1896.6093    910.10448   -461.66379    187.55889 
      13    249.53453   -135542.48   -136301.92    759.43515   -209083.41    99117.969   -9775.2413    4940.8411    969.92585   -22471.999   -2625.9736    -2740.252   -3039.5157   -2098.1529    926.49454   -462.65435    148.92634 
      14    252.60785   -135542.02   -136310.81     768.7885    -209083.4    99124.558   -9788.3542    4942.1845    969.92608   -22475.722   -2660.9003   -2765.6492    -2938.043   -2279.0085    928.46444   -462.72937    78.416751 
      15    255.17337   -135541.52   -136318.12    776.59643    -209083.4     99130.71    -9800.281    4943.5783    969.92607   -22478.655   -2686.5984   -2785.9496   -2837.5259   -2436.3198    919.33929   -461.79838    -23.69893 
      16    257.23451   -135540.99   -136323.86    782.86934   -209083.39    99136.306   -9810.9111    4945.0236    969.92621    -22480.82   -2704.1225   -2800.2181   -2742.3482   -2569.8012     903.4125   -459.97747   -155.81636 
      17    258.81453   -135540.44   -136328.11    787.67798   -209083.38     99141.28   -9820.1888     4946.524    969.92649    -22482.28   -2714.1061    -2807.932   -2655.6333    -2678.753    885.42249    -457.4028   -313.93386 
      18    259.95546   -135539.85      -136331    791.15028   -209083.37    99145.606   -9828.1131    4948.0863    969.92653   -22483.134   -2717.2654   -2809.5816   -2579.7652   -2762.4494    869.04268   -454.63438   -493.30969 
      19    260.71616   -135539.24   -136332.71    793.46539   -209083.37     99149.28   -9834.7383    4949.7198    969.92645   -22483.519   -2714.8687   -2806.6556   -2516.5668   -2821.3837     857.7266   -452.28158    -687.1156 
      20    261.16974    -135538.6   -136333.45    794.84583   -209083.37    99152.327    -9840.173    4951.4366    969.92651   -22483.598   -2708.4658   -2801.1106    -2467.833   -2856.4536    853.55884   -450.72849   -887.52082 
      21    261.39995   -135537.95   -136333.49    795.54646   -209083.36    99154.818   -9844.5787    4953.2515    969.92667   -22483.549   -2699.5291   -2794.9503   -2434.1555   -2869.4815    857.47078   -450.36999   -1086.4121 
      22    261.49587   -135537.27   -136333.11    795.83837   -209083.37     99156.87   -9848.1653    4955.1816    969.92651   -22483.555   -2689.0366   -2788.9464   -2416.0012   -2862.1622    869.21919   -451.62037   -1275.6922 
      23    261.54434   -135536.57   -136332.56    795.98589   -209083.36    99158.598   -9851.1825    4957.2456    969.92659   -22483.788   -2679.0409   -2784.8349   -2414.3462   -2837.9417    887.53751   -454.96207   -1448.3611 
      24    261.62189   -135535.87   -136332.09    796.22191   -209083.36    99160.179   -9853.8977    4959.4631    969.92643   -22484.394    -2669.748   -2781.9126   -2428.4992   -2798.8322    910.95096   -461.52899   -1598.4571 
      25    261.78845   -135535.14   -136331.87    796.72881   -209083.36    99161.782   -9856.5904    4961.8537    969.92647   -22485.482   -2662.2506   -2780.3121   -2458.4127   -2748.0271     937.1152   -472.39016    -1721.384 
      26    262.08243   -135534.41   -136332.03    797.62352   -209083.36    99163.611   -9859.5321    4964.4363    969.92641    -22487.11   -2656.0623   -2778.8081   -2502.2941   -2687.0847    963.72919    -489.4816   -1813.9682 
      27    262.51876   -135533.66   -136332.61    798.95145   -209083.36    99165.863   -9862.9794    4967.2281    969.92643   -22489.288   -2650.8107   -2776.5411   -2557.9743   -2617.9168    989.05639   -514.98091   -1874.5638 
      28    263.09109    -135532.9   -136333.59    800.69329   -209083.36    99168.746   -9867.1694    4970.2438    969.92631   -22491.976   -2645.1812   -2772.4935    -2621.762    -2541.288    1011.4116   -550.33421   -1903.0031 
      29    263.77619   -135532.13   -136334.91    802.77831   -209083.37    99172.448   -9872.3202    4973.4953    969.92615   -22495.088   -2637.7495   -2766.2513     -2688.81   -2458.1871    1029.7077   -596.68989   -1900.5647 
      30    264.53889   -135531.34   -136336.44    805.09953   -209083.36    99177.131   -9878.6273    4976.9914    969.92645   -22498.506   -2627.5405   -2757.9074    -2754.634   -2370.0803    1043.1519   -653.70892   -1870.0505 
      31    265.33653   -135530.54   -136338.07    807.52707   -209083.35    99182.952   -9886.2548    4980.7379    969.92667   -22502.086    -2612.775   -2747.5222   -2813.9469   -2276.8559    1050.9363   -720.10624   -1814.9735 
      32     266.1223   -135529.74   -136339.65    809.91848   -209083.35    99190.027   -9895.3275     4984.737    969.92663   -22505.669   -2592.1391   -2735.1063   -2861.9507   -2179.3602     1052.853   -794.15488   -1740.6745 
      33    266.84814   -135528.92   -136341.05    812.12751   -209083.35    99198.406   -9905.9231    4988.9883    969.92654   -22509.093   -2565.0404   -2721.1261   -2895.6133   -2078.3818    1048.1219   -873.16096   -1651.6409 
      34    267.46795   -135528.09    -136342.1    814.01384   -209083.35      99208.1   -9918.0669    4993.4886    969.92658   -22512.205   -2530.7621   -2705.9516    -2912.757   -1973.5776    1035.5645   -954.45413   -1553.0775 
      35    267.94177   -135527.25   -136342.71    815.45589   -209083.34     99219.08   -9931.7382    4998.2331     969.9269   -22514.873   -2489.0822    -2689.535   -2912.5617   -1865.1498    1014.1813   -1035.7412   -1449.3746 
      36    268.24121   -135526.41   -136342.77     816.3672   -209083.33    99231.298   -9946.8811    5003.2158    969.92703       -22517   -2439.5858   -2671.5718   -2895.7147   -1751.4707     982.6476   -1114.4387    -1344.504 
      37    268.35554   -135525.55   -136342.26    816.71513   -209083.32    99244.666   -9963.4252    5008.4308    969.92731    -22518.54   -2383.1851   -2652.1803   -2864.9241   -1632.4508    939.73619   -1188.8004   -1241.0241 
      38    268.29754   -135524.68   -136341.22    816.53862   -209083.32    99259.108   -9981.3065    5013.8729    969.92746   -22519.508   -2320.3811   -2630.7534   -2823.6265   -1506.7635    884.89631   -1257.4905   -1141.6932 
      39    268.10726   -135523.81   -136339.77    815.95952   -209083.32    99274.555   -10000.489    5019.5388    969.92738   -22519.981   -2252.4709   -2606.4721   -2776.2101   -1374.7305    817.71773   -1319.0574   -1047.7931 
      40    267.85221   -135522.93   -136338.11    815.18332   -209083.32    99290.941    -10020.98    5025.4267    969.92727   -22520.102    -2181.407   -2579.2304   -2727.7377   -1237.2529    739.05604   -1371.9636   -961.07366 
      41    267.62315   -135522.04   -136336.53    814.48617   -209083.33    99308.229   -10042.829    5031.5372    969.92723   -22520.063   -2109.3746   -2549.2182   -2682.3094   -1096.5963    650.16906    -1414.924   -881.83309 
      42     267.5255   -135521.15   -136335.34    814.18901   -209083.33    99326.404   -10066.125    5037.8721    969.92717   -22520.086   -2038.7813   -2517.0986   -2643.5678   -955.67754    553.49977   -1446.8077    -811.4323 
      43    267.66779   -135520.26   -136334.88    814.62204   -209083.33    99345.459   -10090.969    5044.4335    969.92709   -22520.398   -1972.0638   -2484.9487   -2613.4159   -817.82683     452.3668   -1466.3083   -750.09742 
      44    268.14877   -135519.37   -136335.46    816.08587   -209083.34    99365.384   -10117.447    5051.2228    969.92699   -22521.205   -1911.4835   -2454.9675   -2593.2552   -686.22777    350.59523   -1473.8266   -697.99868 
      45    269.04587   -135518.49    -136337.3     818.8161   -209083.34    99386.144   -10145.605    5058.2394    969.92695   -22522.666   -1859.0193   -2430.3348   -2582.6139   -564.10915    252.17492   -1470.0673   -655.46282 
      46    270.40642   -135517.61   -136340.56     822.9568   -209083.35    99407.674   -10175.421    5065.4791    969.92682   -22524.877   -1815.8784   -2413.5156   -2580.9905   -453.12904    160.88498    -1456.907   -621.91011 
      47    272.24313   -135516.73   -136345.28    828.54667   -209083.35     99429.86   -10206.791     5072.934    969.92675   -22527.864   -1782.9483   -2406.3237   -2586.6368   -355.88428    79.627542   -1437.4047   -596.83572 
      48     274.5336   -135515.87   -136351.38    835.51751   -209083.35     99452.55   -10239.526    5080.5921    969.92681    -22531.58   -1760.1757   -2408.5711   -2597.7115   -274.24448    10.526293   -1415.1286   -579.44114 
      49    277.22384      -135515   -136358.71      843.705   -209083.35     99475.56    -10273.36    5088.4373    969.92676   -22535.924    -1746.866    -2418.424   -2611.8812   -210.29289   -46.418869   -1392.9818   -568.64406 
      50    280.23403   -135514.15   -136367.01    852.86622   -209083.35    99498.672   -10307.964    5096.4505    969.92671   -22540.745    -1741.784   -2432.8924   -2626.1275   -166.33206   -91.560738   -1374.0458   -563.78583 
      51    283.46499   -135513.29   -136375.99    862.69937   -209083.35    99521.648    -10342.96    5104.6098    969.92667   -22545.866    -1743.425   -2447.6875     -2638.36   -144.22744   -127.38496   -1359.5431   -564.42732 
      52    286.80457   -135512.45   -136385.31    872.86304   -209083.35    99544.261   -10377.941    5112.8921    969.92662   -22551.097    -1749.681   -2458.5576   -2644.9898   -145.49555   -156.86306   -1349.5905   -570.01576 
      53    290.13267   -135511.61    -136394.6    882.99183   -209083.36    99566.292   -10412.493    5121.2734    969.92643   -22556.242   -1758.1126   -2460.4973   -2643.5898   -170.25072   -183.41114    -1343.548    -580.6752 
      54    293.32522   -135510.79    -136403.5    892.70805   -209083.36    99587.533   -10446.211    5129.7297    969.92637   -22561.111   -1766.7796   -2451.0636   -2631.3245   -217.95073   -210.67601   -1339.7728   -595.48861 
      55    296.25757   -135509.98   -136411.61    901.63239   -209083.37    99607.834   -10478.723    5138.2385     969.9262   -22565.517   -1772.8563   -2426.7996   -2605.4471   -286.32231   -241.78057    -1336.796   -613.83299 
      56     298.8088   -135509.18   -136418.58     909.3968   -209083.37    99627.082   -10509.711    5146.7788    969.92616   -22569.284     -1774.18   -2386.5152   -2564.3023   -371.72266   -280.09988   -1333.7825   -633.65668 
      57    300.86798    -135508.4   -136424.07    915.66374   -209083.38    99645.243   -10538.937    5155.3326      969.926   -22572.253   -1768.0696   -2329.0754   -2505.9178   -469.21566   -327.86203   -1330.5643    -652.6808 
      58      302.343   -135507.64   -136427.79    920.15283   -209083.38    99662.336   -10566.266    5163.8858    969.92602   -22574.296   -1752.6718   -2254.9167   -2430.1246   -572.97405    -387.4375   -1328.0105   -668.08237 
      59    303.17049   -135506.89   -136429.57     922.6712   -209083.38    99678.465   -10591.678    5172.4285     969.9261   -22575.329   -1726.1735   -2164.9558   -2337.1733   -676.39151   -459.77777     -1328.12   -676.87144 
      60    303.32484   -135506.17   -136429.31    923.14096   -209083.38    99693.808   -10615.278    5180.9556    969.92618   -22575.339   -1687.3993    -2060.567   -2228.8694   -772.76145   -544.43787   -1332.7681   -676.43218 
      61    302.82415   -135505.46   -136427.07    921.61716   -209083.38     99708.59    -10637.28    5189.4663    969.92614   -22574.391   -1635.9603   -1943.8807   -2108.1831   -855.81728   -639.67723   -1343.7033    -664.9674 
      62    301.73089   -135504.76   -136423.05    918.28992   -209083.39    99723.069   -10657.986    5197.9631    969.92615   -22572.639   -1572.3617   -1817.9778   -1978.8493   -920.25813   -742.88633   -1361.3258   -641.21596 
      63    300.14697   -135504.09   -136417.56    913.46941   -209083.39    99737.514   -10677.744    5206.4501     969.9261   -22570.314   -1497.5217   -1685.3597   -1845.0785   -962.12689   -850.39395   -1384.8236   -605.31363 
      64     298.2043   -135503.43   -136410.99    907.55709   -209083.39    99752.169   -10696.917    5214.9316    969.92617    -22567.71    -1413.337   -1549.0374    -1711.105   -979.86845   -958.57578   -1411.8562   -558.42546 
      65    296.05262    -135502.8   -136403.81    901.00863    -209083.4    99767.251   -10715.845    5223.4103     969.9261   -22565.156   -1321.6029   -1410.5522    -1580.211   -974.04548   -1064.1495   -1439.0245   -502.70926 
      66    293.84625   -135502.19   -136396.49    894.29375    -209083.4    99782.918   -10734.825    5231.8861    969.92602   -22562.985   -1224.5299     -1271.08   -1455.2602   -947.24958   -1164.1665   -1462.2699   -440.45038 
      67     291.7312    -135501.6   -136389.46     887.8568    -209083.4    99799.269     -10754.1     5240.355    969.92628   -22561.508   -1124.7125    -1131.545   -1338.2475   -904.34492    -1256.936   -1478.6191   -375.22404 
      68    289.83343   -135501.03   -136383.11    882.08111    -209083.4     99816.38   -10773.849    5248.8094    969.92642   -22560.981   -1023.6801   -991.31847   -1229.3336   -850.38815   -1340.4722    -1485.593   -310.06082 
      69    288.24904   -135500.48   -136377.74    877.25918    -209083.4    99834.268   -10794.182    5257.2371    969.92644   -22561.592   -923.08009   -850.85855   -1127.8371    -790.5446   -1413.6855   -1482.0752   -247.76816 
      70    287.03742   -135499.95   -136373.52    873.57171    -209083.4    99852.902   -10815.137    5265.6216     969.9265    -22563.44   -824.09276   -710.70615   -1032.5646   -729.00758   -1475.7669     -1467.39   -190.73791 
      71    286.21804   -135499.44   -136370.52    871.07799    -209083.4    99872.213   -10836.672    5273.9422     969.9266   -22566.531   -726.99618   -571.13244   -941.47128    -668.3848   -1525.7981   -1442.3178   -140.06901 
      72    285.77144   -135498.95   -136368.66    869.71881   -209083.39    99892.076   -10858.669     5282.174     969.9268    -22570.78   -632.06044   -433.80185   -852.38521   -609.99425   -1563.5867   -1407.1779   -96.635501 
      73    285.64455   -135498.46    -136367.8    869.33264   -209083.39    99912.337   -10880.939    5290.2887    969.92675   -22576.017   -538.32226   -299.42679   -762.77065   -552.76934   -1589.0782   -1363.3473   -59.792873 
      74    285.75952   -135497.99   -136367.68    869.68253   -209083.39     99932.77   -10903.234    5298.2549    969.92702   -22582.007   -445.83942   -170.47359   -671.63214   -495.41253   -1602.4059      -1312.6   -28.881613 
      75    286.02487   -135497.53   -136368.02     870.4901   -209083.39    99953.147   -10925.277    5306.0398      969.927   -22588.469   -353.37825   -48.450828   -576.30181   -435.38213   -1604.1143   -1256.6288   -3.0243179 
      76    286.34677   -135497.07   -136368.54    871.46978   -209083.39    99973.203   -10946.787    5313.6102     969.9269   -22595.106   -260.67171    64.460047   -476.28868    -370.1865     -1595.27   -1198.1134    18.289961 
      77    286.63913   -135496.62   -136368.98    872.35955   -209083.39    99992.681   -10967.506    5320.9344    969.92701   -22601.629   -167.67786    165.41039   -370.20588   -298.23808   -1576.7808   -1139.5645    35.221943 
      78    286.83143   -135496.17   -136369.12    872.94481   -209083.39    100011.37   -10987.222    5327.9831    969.92697   -22607.783   -74.024329      252.639   -255.73825   -218.97374   -1549.9195   -1083.0137    47.381054 
      79    286.87433   -135495.73    -136368.8    873.07537   -209083.39    100029.07   -11005.777     5334.731    969.92696   -22613.367    19.727627     324.1795   -131.55588   -133.44073   -1516.0711   -1030.1364    54.225797 
      80    286.74324   -135495.28   -136367.96    872.67639   -209083.39    100045.67   -11023.076    5341.1569    969.92688   -22618.245    113.19684    379.57733    4.2697709   -44.256592   -1476.3486   -981.67175    55.726672 
      81    286.44008   -135494.83   -136366.59    871.75377   -209083.39    100061.07   -11039.084    5347.2446      969.927   -22622.357    205.15629    418.61237    151.93882    44.917695   -1431.8514   -937.72308    51.912649 
      82    285.99322   -135494.39   -136364.78    870.39378   -209083.39    100075.23   -11053.826     5352.983    969.92702   -22625.711    294.62016    443.73622    310.55484    129.56941   -1382.9633   -897.90955    43.569264 
      83     285.4552   -135493.94    -136362.7    868.75637   -209083.38    100088.16   -11067.388    5358.3662    969.92704   -22628.383    379.90979    457.08715    476.91035    205.73187   -1330.0654   -861.10298    32.357412 
      84    284.89882    -135493.5   -136360.56     867.0631   -209083.39    100099.92   -11079.913    5363.3933    969.92696     -22630.5    459.39752     462.6681    645.82727    269.69719   -1273.0378   -826.34812    20.290795 
      85    284.41148   -135493.05   -136358.63    865.57992   -209083.39    100110.59     -11091.6    5368.0683    969.92686   -22632.228    531.16476      464.206    810.36953    318.91875   -1211.8512   -792.62458    9.1808029 
      86    284.08788   -135492.61    -136357.2    864.59506   -209083.39     100120.3   -11102.695    5372.3996    969.92693   -22633.749    593.25886    465.06889    962.23865    352.46904    -1146.619   -759.74223   0.27092393 
      87    284.02116   -135492.16   -136356.55      864.392   -209083.38    100129.21   -11113.467    5376.3988    969.92715   -22635.245    643.88562    467.53506    1093.4268    370.69505   -1078.0746   -727.62669   -5.9360846 
      88    284.29315   -135491.72   -136356.94    865.21978   -209083.39     100137.5   -11124.187    5380.0802    969.92692   -22636.876    682.22123    474.39382    1197.0215    375.24839     -1007.47   -697.65083   -10.805436 
      89    284.96473   -135491.28   -136358.55    867.26367   -209083.39    100145.32   -11135.093     5383.459    969.92668    -22638.77    707.07746     485.4641    1268.2789    367.48938   -936.22119   -670.59085   -16.278865 
      90    286.06776   -135490.85   -136361.47    870.62064    -209083.4    100152.83   -11146.364    5386.5501    969.92639   -22641.006    719.01213    501.20487    1306.0914     349.7401    -866.8805   -648.34756   -25.419326 
      91    287.59987   -135490.42    -136365.7    875.28347   -209083.39    100160.09   -11158.091     5389.367    969.92684   -22643.609    717.72269     520.0017    1311.1961    321.97027   -801.42034    -631.5261   -41.769537 
      92    289.52261      -135490   -136371.13    881.13517   -209083.38    100167.22   -11170.265    5391.9211    969.92686   -22646.553    706.07315    542.20206    1290.1825    285.83494   -741.90703   -619.93145   -68.424004 
      93    291.76319   -135489.58   -136377.53    887.95415   -209083.39    100174.24   -11182.773    5394.2212    969.92678   -22649.758    685.70194    565.95451    1249.9256    241.22573   -690.33495   -612.33913   -108.12426 
      94    294.21954   -135489.17    -136384.6    895.42983   -209083.39     100181.1   -11195.408    5396.2732    969.92673   -22653.105    659.28322     590.7591    1199.4893    187.60122   -647.50861   -606.56489   -162.86854 
      95    296.76891   -135488.76   -136391.95     903.1886   -209083.39    100187.75   -11207.882     5398.081    969.92669   -22656.445    629.85814    616.15331    1147.8782    125.54291   -613.86273   -599.68669   -233.44839 
      96    299.27966   -135488.36   -136399.19    910.82984   -209083.38     100194.1   -11219.863    5399.6466    969.92674   -22659.614    600.42584     642.5374    1103.0081    55.731977   -588.67324   -589.14928   -320.05034 
      97    301.62567   -135487.96   -136405.93    917.96968   -209083.38    100200.02   -11231.013    5400.9716    969.92688   -22662.457    573.41574    670.18695    1069.9629   -19.902652   -570.84657   -573.40914   -421.06378 
      98    303.70107   -135487.56   -136411.84    924.28598   -209083.38    100205.42   -11241.034    5402.0578    969.92695    -22664.84    551.10314    700.05324    1051.5488   -98.292616   -557.97685   -552.16477   -534.15825 
      99     305.4322   -135487.16   -136416.71    929.55452   -209083.37     100210.2   -11249.703    5402.9081    969.92713   -22666.669    534.35623    732.23851    1046.9221    -176.0919   -547.78986   -526.62692    -656.5126 
     100    306.78405   -135486.76   -136420.43    933.66876   -209083.37    100214.28   -11256.894     5403.527     969.9272   -22667.896    523.91327     767.1076    1053.4252   -248.79296   -537.51274   -498.75029   -784.84222 
     101    307.76024   -135486.37      -136423     936.6397   -209083.37    100217.61   -11262.572    5403.9208    969.92739   -22668.525    518.96352    804.51204    1065.6552   -313.27671   -524.43396   -470.96215   -916.48384 
     102     308.3973   -135485.98   -136424.56    938.57851   -209083.37    100220.17   -11266.781    5404.0977    969.92734   -22668.604    518.82924    843.45645    1078.9818   -365.95054   -506.69025   -445.12809   -1049.5059 
     103    308.75486    -135485.6   -136425.27    939.66672   -209083.38    100221.94    -11269.61    5404.0672     969.9273   -22668.218    521.81315    883.16339    1086.8292   -404.55314    -483.0681   -422.11255   -1182.0458 
     104    308.90423   -135485.23   -136425.35    940.12131   -209083.38    100222.89   -11271.166    5403.8401    969.92743   -22667.474    525.96874    921.27348    1084.4816   -427.84887   -453.21298   -402.02003   -1312.8975 
     105    308.91727   -135484.88   -136425.04      940.161   -209083.38    100223.03   -11271.546    5403.4279    969.92732   -22666.494    530.23891    956.83665    1068.3339   -434.45388   -417.69853   -382.88108   -1440.2278 
     106    308.85786   -135484.54   -136424.52    939.98019   -209083.39    100222.33   -11270.823    5402.8428    969.92721   -22665.401    532.86716    987.63766    1035.7435   -424.77966   -377.23937     -363.251   -1562.1845 
     107    308.77724    -135484.2   -136423.94    939.73484   -209083.39    100220.78   -11269.045    5402.0973     969.9273   -22664.311    533.01675    1012.5964     985.8468   -399.39298   -333.15728   -340.79573   -1675.7649 
     108    308.71341   -135483.88   -136423.42    939.54058   -209083.39    100218.42   -11266.248    5401.2044    969.92735   -22663.331    530.42006    1031.2369    920.05208   -360.02883   -286.43773   -313.71751   -1777.6544 
     109    308.69309   -135483.57   -136423.05    939.47874   -209083.39    100215.26   -11262.468    5400.1768    969.92748   -22662.552     524.9189    1043.2713    841.03388   -309.54848   -238.46574   -280.22807   -1863.9466 
     110    308.73451   -135483.27   -136422.88     939.6048   -209083.39    100211.36   -11257.749    5399.0268    969.92767   -22662.051    516.54249    1049.4618    752.26771   -252.10201   -189.94579   -240.24941   -1931.2056 
     111    308.84913   -135482.98   -136422.93    939.95363   -209083.39    100206.79   -11252.138    5397.7656    969.92752   -22661.885    505.92768    1050.0037    659.22563   -191.44634   -141.81066   -193.62551   -1977.2173 
     112    309.04176    -135482.7   -136423.24    940.53988    -209083.4     100201.6   -11245.676    5396.4023     969.9274   -22662.091    492.94929     1046.114    564.77771   -132.04383   -94.202277   -140.68533   -2000.2112 
     113    309.30969   -135482.43   -136423.78     941.3553    -209083.4     100195.8   -11238.383     5394.944    969.92738   -22662.675    477.92109    1037.6808    473.43657   -77.354074   -47.346759   -82.805365   -2000.9736 
     114    309.64133   -135482.17   -136424.53    942.36461    -209083.4    100189.42   -11230.255    5393.3952    969.92736   -22663.615     461.1997    1025.7875    387.52685   -29.715256  -0.78271366   -20.759304   -1981.0644 
     115     310.0153   -135481.92   -136425.42    943.50276    -209083.4    100182.41   -11221.261     5391.759    969.92743    -22664.86    442.84751    1010.5479    308.52006    9.4745404    46.192754    44.039603   -1943.2885 
     116    310.40068   -135481.68   -136426.36    944.67561    -209083.4    100174.76   -11211.358    5390.0374    969.92746   -22666.331    423.57472    992.92806    237.48208    40.314008    94.618578    110.00659   -1891.4897 
     117    310.75856   -135481.46   -136427.22     945.7648   -209083.39    100166.45   -11200.512    5388.2328    969.92776   -22667.932    403.35644    973.62909    173.50584    62.934385     145.2633     175.1771   -1829.1585 
     118    311.04513   -135481.24   -136427.88    946.63694    -209083.4    100157.51    -11188.71     5386.349    969.92759   -22669.559    383.77127    954.89643    116.91375    79.503623    199.21262    237.83932   -1760.1323 
     119    311.21537   -135481.04    -136428.2    947.15504    -209083.4    100147.98   -11175.989     5384.392    969.92762    -22671.11    364.88819    938.78457    66.108915    89.771085    257.08168    296.27502   -1687.1741 
     120    311.22676   -135480.85   -136428.04    947.18971    -209083.4    100137.99   -11162.441    5382.3705    969.92764   -22672.491    348.03772     928.5259    19.960749    95.626515    319.19287    350.35489    -1612.509 
     121    311.04222   -135480.66   -136427.29    946.62808    -209083.4    100127.72   -11148.211    5380.2958    969.92759   -22673.625    334.36717    927.52048   -22.560473    98.141503    385.86127    400.47452   -1537.5639 
     122    310.63292   -135480.48   -136425.86    945.38241    -209083.4    100117.37   -11133.494    5378.1814    969.92751    -22674.45    324.84506     938.7506    -63.15301    98.937574    457.16687    448.02698    -1463.038 
     123    309.98199   -135480.31   -136423.71    943.40139    -209083.4    100107.18   -11118.529    5376.0421    969.92752   -22674.925    320.36651    964.98909   -103.76442    99.874875    532.60542    495.48765    -1389.665 
     124    309.08945   -135480.14   -136420.82    940.68501    -209083.4    100097.37    -11103.59    5373.8934    969.92766    -22675.03    321.41875    1006.7734   -145.11324    102.59613    611.89409    545.19851   -1318.2185 
     125    307.97655   -135479.97   -136417.27      937.298    -209083.4     100088.2   -11088.983    5371.7498     969.9277   -22674.769     328.0988    1064.5131   -188.63908    108.42237    694.45968    598.96621   -1249.3516 
     126    306.68701   -135479.81   -136413.18     933.3734    -209083.4    100079.88   -11075.042    5369.6246    969.92768   -22674.172    339.74322    1135.7666   -234.30864    117.77171    780.20397    657.98837   -1184.0735 
     127     305.2835   -135479.66   -136408.76    929.10196    -209083.4    100072.58   -11062.097    5367.5284     969.9276   -22673.293    355.24854    1216.7711    -281.2921     130.2666    869.32752    722.37343   -1122.5229 
     128    303.84001    -135479.5   -136404.21    924.70883    -209083.4    100066.44   -11050.446    5365.4686    969.92766   -22672.206    373.08416    1302.8761   -327.48509    143.86151    962.28983    791.71282   -1064.6116 
     129    302.43255   -135479.36   -136399.79    920.42536    -209083.4    100061.55   -11040.315    5363.4484    969.92761   -22670.997    392.00863    1389.2961   -370.26789    156.99768    1059.1668    864.80973    -1009.408 
     130    301.13085   -135479.22   -136395.69    916.46376    -209083.4     100057.9   -11031.829    5361.4664    969.92767   -22669.753    410.29996    1471.0795   -406.54686    166.36728    1160.0347    940.10009   -956.21012 
     131     299.9927   -135479.09   -136392.09    912.99991   -209083.41    100055.42   -11024.998    5359.5167    969.92759   -22668.556    427.02401    1545.2621   -434.17613    169.98608    1264.0831    1015.8419   -903.91134 
     132    299.06114   -135478.97   -136389.13    910.16478    -209083.4    100053.95   -11019.725    5357.5887    969.92775   -22667.473    440.77103     1608.579   -451.49855    165.23263    1369.7785    1089.8323   -851.78711 
     133     298.3639   -135478.85   -136386.89    908.04281    -209083.4    100053.29   -11015.825    5355.6683    969.92772   -22666.553    451.16561    1660.8657   -458.22364    150.85475    1475.6668     1160.022   -799.57051 
     134    297.91412   -135478.73   -136385.41    906.67393    -209083.4     100053.2   -11013.048    5353.7384    969.92775   -22665.824    457.32363    1701.9169     -455.105    125.15898    1579.8063    1223.7045    -746.7126 
     135    297.71152   -135478.62   -136384.68    906.05735   -209083.39     100053.4   -11011.108    5351.7799    969.92798    -22665.29     458.6452    1732.9206   -444.47099    87.486038    1680.4215    1278.7073   -692.93889 
     136    297.74365   -135478.51   -136384.67    906.15514   -209083.39    100053.65   -11009.702    5349.7726    969.92807   -22664.929    455.16115      1755.51   -428.25886    38.232284    1776.0986    1322.2896   -638.07975 
     137    297.98682    -135478.4    -136385.3     906.8952   -209083.38    100053.68   -11008.523    5347.6961    969.92825     -22664.7      446.361    1770.5775   -409.51205   -21.982402    1865.0416    1351.8077   -582.16648 
     138    298.40681    -135478.3   -136386.47    908.17338   -209083.38    100053.25   -11007.265    5345.5302    969.92827   -22664.536    432.48136    1778.3062   -390.44669   -90.415482    1945.8329    1365.3478   -525.76701 
     139    298.95959   -135478.19   -136388.05    909.85574   -209083.39    100052.14   -11005.624    5343.2561    969.92806   -22664.358     414.0147    1777.5598   -372.02602   -163.48973    2016.6315    1361.8176   -469.70395 
     140    299.59294   -135478.09   -136389.87    911.78327   -209083.39    100050.11   -11003.304     5340.857    969.92807   -22664.078    390.90702    1765.0294   -354.92219   -237.38618    2076.0494    1341.3791   -415.50339 
     141    300.24968   -135477.99   -136391.77    913.78199   -209083.39    100047.01   -11000.023    5338.3196    969.92802   -22663.615    364.29545    1737.6784   -337.28807     -307.504    2123.0893    1305.8748   -365.07336 
     142    300.87299   -135477.88   -136393.56    915.67899   -209083.38    100042.69   -10995.534    5335.6349    969.92819   -22662.902    334.75523    1690.8387   -316.77851   -369.79451     2157.104    1258.5835   -320.17311 
     143    301.41314   -135477.78    -136395.1    917.32289   -209083.38    100037.12   -10989.655    5332.8001    969.92819   -22661.906    303.65326    1622.3282   -290.53443   -420.83395    2178.4897    1203.6164   -282.65398 
     144    301.83355   -135477.67   -136396.27    918.60235   -209083.38    100030.29   -10982.299    5329.8188    969.92825   -22660.627    271.62037    1530.7789   -257.42317   -458.49459    2187.8963    1145.3678   -253.48506 
     145    302.11428   -135477.55   -136397.01    919.45673   -209083.38    100022.33   -10973.485    5326.7016    969.92831   -22659.106    239.78724    1416.7712   -216.85737   -480.55206    2186.6578    1087.4028   -233.23762 
     146    302.25157   -135477.44   -136397.31    919.87455   -209083.38    100013.42   -10963.331    5323.4648    969.92831   -22657.413    208.85361    1283.1066   -170.56456   -485.98118    2175.9521    1031.7928   -221.72365 
     147    302.25351   -135477.32    -136397.2    919.88048   -209083.38    100003.79   -10952.026     5320.129    969.92824   -22655.636    179.37094    1133.3701   -121.25205    -474.0052    2156.8068    978.74346   -218.14534 
     148    302.13354   -135477.21   -136396.72    919.51535   -209083.38    99993.661   -10939.783    5316.7161    969.92818   -22653.858    151.73772    971.90376   -72.195857   -444.49473     2129.564    926.78774   -221.23319 
     149    301.90385   -135477.09   -136395.91    918.81631   -209083.38    99983.243   -10926.795    5313.2477    969.92819   -22652.148    126.15394    803.08814   -26.211876   -398.41444    2095.3634    873.11323   -230.13144 
     150    301.57145   -135476.98   -136394.79    917.80467   -209083.38     99972.67   -10913.203    5309.7428    969.92819    -22650.54    102.83769    631.12805    14.777493   -337.39248    2054.5768    814.14218   -243.56401 
     151    301.13791   -135476.87   -136393.36    916.48526   -209083.39    99962.006   -10899.085    5306.2167    969.92818   -22649.041    81.869858    459.58874    50.064676   -264.04384    2008.4829    746.59385   -260.46065 
     152    300.60276   -135476.77   -136391.62    914.85656   -209083.38    99951.244   -10884.471    5302.6813    969.92831   -22647.625     62.82567    291.50123    78.993254   -182.01747    1958.8116    668.51143    -279.6917 
     153     299.9687   -135476.66   -136389.59    912.92685   -209083.39     99940.35   -10869.371     5299.146    969.92823   -22646.255    45.848155    129.91399     102.4824   -94.851927    1907.5444    578.26109   -299.82014 
     154    299.24672   -135476.55   -136387.28    910.72959   -209083.39     99929.26   -10853.813    5295.6189    969.92815   -22644.889    29.983579   -22.830662    120.74142   -7.9600219    1857.2367    476.89701   -319.50808 
     155    298.45926   -135476.44   -136384.77    908.33303   -209083.38    99917.945   -10837.876    5292.1085    969.92819   -22643.496    14.675587   -165.40067    135.14543    74.281998     1810.212    366.36814   -336.83303 
     156    297.64048   -135476.33   -136382.17    905.84112   -209083.38    99906.434   -10821.705    5288.6252    969.92813   -22642.065  -0.59594864   -296.05589    146.95737    147.31067    1768.3773    250.28562   -351.05144 
     157    296.83392   -135476.21    -136379.6    903.38645   -209083.38    99894.805   -10805.525    5285.1818    969.92809   -22640.604   -16.668866   -414.83344    157.64707    207.17977    1733.4806      132.457   -361.16494 
     158     296.0883    -135476.1   -136377.21    901.11723   -209083.38    99883.205   -10789.618    5281.7943    969.92807   -22639.139   -33.916336   -522.06438    168.46579    251.84958    1705.8557    17.088858   -367.30063 
     159    295.45213   -135475.98   -136375.16    899.18109   -209083.39    99871.829   -10774.305    5278.4811    969.92796   -22637.706   -52.630416   -618.38311    179.86455    280.62732    1685.8865   -91.898771   -370.25559 
     160    294.96786   -135475.86   -136373.57    897.70725   -209083.39    99860.888   -10759.908    5275.2627    969.92781   -22636.346   -72.676553   -704.91517    191.10154    295.78397    1672.7783   -191.66152   -371.41866 
     161    294.66642   -135475.74   -136372.53    896.78986   -209083.38    99850.566   -10746.711    5272.1599    969.92805   -22635.093   -94.782619   -783.81127    199.46917    299.99425    1665.3526    -280.0197   -372.45987 
     162     294.5631   -135475.63    -136372.1    896.47543   -209083.39    99841.057   -10734.919    5269.1932    969.92785   -22633.972   -117.43034   -854.47645    202.64086    299.54457    1662.3898   -356.49553   -374.71741 
     163    294.65542   -135475.51   -136372.27    896.75638    -209083.4    99832.455   -10724.644     5266.381     969.9278   -22632.993   -140.84104   -917.93826    196.34068    299.07448    1661.3298   -421.21778   -379.06057 
     164    294.92383    -135475.4   -136372.97    897.57327   -209083.39    99824.803   -10715.887    5263.7391    969.92782   -22632.158   -164.08406    -973.6798    177.81256    303.61506    1660.3726   -475.65523   -384.97197 
     165    295.33527   -135475.28    -136374.1    898.82543   -209083.39    99818.096   -10708.558      5261.28    969.92798   -22631.459   -186.44908   -1020.5069    144.42536    316.73433    1657.3543   -522.03182   -391.79846 
     166    295.84892   -135475.15   -136375.54    900.38869   -209083.39    99812.301   -10702.499    5259.0127     969.9279   -22630.894   -206.63275   -1055.9056    96.308456    339.69885    1649.9844   -562.83253   -397.38711 
     167    296.42337   -135475.02   -136377.16    902.13699   -209083.39    99807.342   -10697.524    5256.9428    969.92801   -22630.464   -224.59862   -1079.2022    34.548093    370.85824    1636.3865   -600.38888   -399.82262 
     168    297.02346   -135474.89   -136378.85    903.96329   -209083.39    99803.169    -10693.45    5255.0726     969.9279   -22630.185   -239.22163    -1088.132   -36.847446    407.31451    1615.2232   -636.38391   -397.40773 
     169    297.62474   -135474.75   -136380.55    905.79325   -209083.39    99799.719   -10690.119    5253.4015    969.92783   -22630.083   -250.63457   -1082.6222   -113.55202    444.27054    1585.1064   -671.32193   -389.20957 
     170    298.21472   -135474.61    -136382.2    907.58879   -209083.39    99796.943   -10687.408    5251.9253    969.92783   -22630.192   -258.78787   -1063.3206   -190.08336    477.04038     1545.875   -705.28079   -375.52429 
     171    298.79038   -135474.46    -136383.8    909.34074    -209083.4    99794.788   -10685.209    5250.6371    969.92774   -22630.548   -263.75532   -1032.0865   -261.10365    501.92421    1497.2082   -736.74481   -357.42142 
     172    299.35372   -135474.31   -136385.37    911.05522    -209083.4     99793.17   -10683.418    5249.5265     969.9278   -22631.178   -266.31491   -992.20996   -322.85133    516.11657    1440.0052   -764.66192   -336.50041 
     173    299.90727   -135474.16    -136386.9    912.73991    -209083.4    99791.994    -10681.91    5248.5803    969.92765   -22632.095   -266.52952   -947.39156   -372.00686    519.80987    1375.4731    -787.3718   -315.15193 
     174    300.45104   -135474.01   -136388.41    914.39481    -209083.4    99791.103    -10680.53     5247.783    969.92773   -22633.291   -265.51062   -901.80943   -407.63358    512.91115    1305.4881   -804.04118   -296.06502 
     175    300.98153   -135473.86   -136389.87    916.00932    -209083.4    99790.323     -10679.1     5247.118    969.92765   -22634.739   -263.63958   -859.46235   -428.85127    497.39487    1232.6351   -814.40306   -280.98343 
     176    301.49219   -135473.71   -136391.28    917.56345    -209083.4    99789.452   -10677.427    5246.5686    969.92749   -22636.393   -261.69462   -822.88455   -437.28141     475.0821    1159.2389    -819.3355   -272.15665 
     177    301.97429   -135473.56   -136392.59    919.03069    -209083.4    99788.282   -10675.328    5246.1195    969.92748   -22638.192   -260.61452   -794.29168   -435.54127    447.98941    1087.8615   -820.05025   -271.10137 
     178    302.41757   -135473.42    -136393.8    920.37977    -209083.4    99786.635   -10672.651    5245.7579    969.92755   -22640.064   -261.17155   -774.24042   -427.02967    417.75543    1020.1899   -818.56722   -278.60033 
     179    302.80984   -135473.27   -136394.84    921.57362    -209083.4    99784.383   -10669.291    5245.4741    969.92751   -22641.934   -263.68402   -761.96332   -415.99954    386.91081    957.36385   -816.93496   -295.11519 
     180    303.13597   -135473.13   -136395.69    922.56615    -209083.4    99781.447   -10665.204    5245.2619    969.92759   -22643.726   -268.88627   -756.62474   -407.47192    357.43784    899.89739   -817.24174   -320.47002 
     181    303.37689   -135472.98   -136396.28    923.29936    -209083.4    99777.827   -10660.401    5245.1182    969.92766   -22645.359   -276.43646   -756.27117   -405.58354    332.54534    847.55143   -820.67789   -354.34626 
     182    303.50949   -135472.85   -136396.55    923.70293    -209083.4    99773.582   -10654.949     5245.042    969.92769   -22646.756   -286.02579    -758.7766   -414.11975    314.81897    799.75493   -828.21813   -396.33386 
     183    303.50758   -135472.71   -136396.41    923.69711    -209083.4    99768.823   -10648.957    5245.0337     969.9277   -22647.838   -296.88267   -763.06839   -435.54642    307.96679     754.9229   -839.80839   -445.43571 
     184    303.34415   -135472.58   -136395.78    923.19972    -209083.4    99763.697    -10642.57    5245.0939    969.92764   -22648.526   -308.17578   -768.02468   -470.41491    313.91224    712.13674   -855.24089   -501.29335 
     185    302.99466   -135472.44   -136394.58    922.13608    -209083.4    99758.374   -10635.958    5245.2227    969.92753   -22648.745   -318.95271   -773.49687   -517.50053    334.13927    669.53245    -873.7397   -562.66237 
     186    302.44073   -135472.31   -136392.76    920.45026   -209083.41    99753.032   -10629.306    5245.4186    969.92737   -22648.427   -328.35889    -779.5476   -574.36441    368.83536    625.14098   -894.41048    -628.2437 
     187    301.67343   -135472.18    -136390.3    918.11504   -209083.42    99747.848    -10622.81    5245.6792    969.92716   -22647.525   -335.74396    -787.2638   -636.86276    416.89469    577.68325   -916.81552   -696.01995 
     188    300.69584   -135472.05   -136387.19    915.13985   -209083.43    99742.988   -10616.664    5246.0001    969.92688   -22646.014   -340.60994   -797.16077   -700.60469    475.93566    525.46862   -939.82671   -764.33805 
     189    299.52473   -135471.91   -136383.49    911.57568   -209083.42    99738.592   -10611.058    5246.3756     969.9269   -22643.901   -343.25168   -810.70919   -761.51687    542.47101    467.32468   -963.04821   -830.95319 
     190    298.19084   -135471.78   -136379.29     907.5161   -209083.43      99734.8   -10606.167    5246.7989    969.92688   -22641.226   -343.41495   -828.93304   -814.41151     613.0997    402.66357   -985.77655   -893.73791 
     191    296.73754   -135471.64   -136374.73    903.09314   -209083.43    99731.717   -10602.147    5247.2615    969.92685   -22638.063   -341.73221   -853.59639   -855.42593    683.82571    331.41827   -1007.5172   -950.89068 
     192    295.21782    -135471.5   -136369.97      898.468   -209083.43     99729.42   -10599.125    5247.7543    969.92677   -22634.514   -338.62944   -885.94619   -881.31769    751.37556    255.10189   -1027.9321   -1000.6578 
     193    293.69002   -135471.35   -136365.17    893.81828   -209083.42    99727.952   -10597.196    5248.2673    969.92687   -22630.699   -335.15078   -927.31405   -890.72094    812.58265    175.29615   -1047.3705   -1042.0881 
     194    292.21348   -135471.21   -136360.54    889.32457   -209083.43    99727.342   -10596.412      5248.79    969.92687   -22626.756   -331.49459   -976.97708   -883.57285    866.06617    94.760582   -1065.6993   -1074.6472 
     195    290.84489   -135471.06   -136356.22    885.15939   -209083.43    99727.581   -10596.786    5249.3121    969.92687   -22622.829   -328.45554   -1033.7682   -862.05316    910.45476    15.924202     -1083.57    -1098.277 
     196    289.63611   -135470.91   -136352.39    881.48058   -209083.43    99728.651   -10598.298    5249.8237    969.92684   -22619.067   -326.18802   -1094.9896   -829.21217    945.63772   -59.112492   -1101.3662   -1113.7179 
     197    288.63326   -135470.76   -136349.19     878.4285   -209083.43    99730.516   -10600.898    5250.3159    969.92685   -22615.616   -324.94413   -1156.9935   -789.22427    971.38539   -128.97527   -1118.8502   -1122.0497 
     198    287.87641    -135470.6   -136346.72    876.12509   -209083.43    99733.138   -10604.523    5250.7813    969.92696   -22612.616   -324.84216   -1215.9067   -746.19565    987.57592    -193.2314   -1136.0098   -1124.8545 
     199    287.39879   -135470.43    -136345.1    874.67152   -209083.42    99736.476   -10609.097    5251.2137    969.92704   -22610.194   -325.79088   -1267.8325   -703.93478    994.39467   -252.14935   -1152.6869   -1123.4889 
     200    287.22493   -135470.25    -136344.4    874.14238   -209083.43    99740.482   -10614.533    5251.6083    969.92694   -22608.454   -327.54007   -1309.1951   -665.29713    991.87202    -306.1468   -1168.6783   -1119.5807 
     201    287.36756   -135470.08   -136344.65    874.57646   -209083.43    99745.081   -10620.729    5251.9608    969.92697   -22607.464   -330.30858   -1338.2406   -632.59263    979.90748   -356.26861   -1183.9501   -1114.1886 
     202    287.82488   -135469.89   -136345.86    875.96827   -209083.43    99750.184   -10627.553    5252.2672    969.92697   -22607.257   -333.73964   -1353.6177    -606.9047    959.30351   -402.68556   -1198.6295   -1108.7539 
     203    288.57835    -135469.7   -136347.96    878.26138   -209083.42    99755.669   -10634.841    5252.5232     969.9271   -22607.816   -337.98434   -1355.8085   -589.03473    930.89019   -445.78742   -1213.4265    -1103.539 
     204    289.59131   -135469.51   -136350.85    881.34423   -209083.42    99761.392   -10642.392    5252.7235    969.92724    -22609.08   -342.81226   -1345.7905   -578.88778    896.24147   -485.23988   -1228.2203   -1099.4228 
     205    290.80934   -135469.31   -136354.36    885.05119   -209083.42    99767.181   -10649.966    5252.8623    969.92732   -22610.947   -348.22987   -1325.4687    -576.1056    856.88463   -520.43996   -1243.3991   -1096.2614 
     206    292.16267   -135469.11   -136358.28    889.16994   -209083.42    99772.856   -10657.291    5252.9329    969.92716   -22613.278   -353.43292   -1296.5251   -578.54421    814.77056   -550.25364   -1258.4947   -1094.2735 
     207    293.57103    -135468.9   -136362.35    893.45613   -209083.42    99778.205   -10664.084    5252.9279    969.92728   -22615.911   -358.56192   -1261.1723   -584.69078    770.17733   -573.50364   -1272.7271    -1093.123 
     208    294.95102   -135468.68   -136366.34    897.65601   -209083.41    99783.038   -10670.063    5252.8401    969.92753   -22618.673   -362.98075   -1220.9377   -591.31514     723.3106   -588.28843   -1284.6741    -1093.021 
     209    296.22517   -135468.46   -136369.99    901.53378   -209083.41      99787.2   -10674.983     5252.663    969.92752   -22621.393   -365.61725    -1177.116   -594.34157    674.60586   -592.93312   -1293.0981   -1093.6854 
     210    297.33064   -135468.23   -136373.13    904.89818   -209083.41     99790.53   -10678.655    5252.3909    969.92756   -22623.915   -366.62128   -1131.1119   -591.54473    622.79277   -585.96124   -1297.1225   -1095.2708 
     211    298.22554   -135467.99   -136375.61    907.62172    -209083.4    99792.909   -10680.957    5252.0197     969.9277   -22626.112   -365.90208   -1084.2989   -580.19015     566.7828   -566.70659   -1296.6711   -1097.6788 
     212    298.89136   -135467.75    -136377.4    909.64807    -209083.4     99794.26   -10681.837     5251.547    969.92769   -22627.893   -363.53216   -1038.3242   -558.64139    506.36912   -535.52123   -1292.2507   -1100.6804 
     213    299.33134    -135467.5   -136378.48    910.98712    -209083.4    99794.529   -10681.306    5250.9722    969.92764   -22629.208   -360.30178   -995.19313   -526.85016    441.13796   -494.09582   -1285.2208   -1103.2324 
     214    299.56601   -135467.24   -136378.95    911.70131    -209083.4      99793.7   -10679.415    5250.2961    969.92755   -22630.052   -356.79767   -956.98267   -484.70111    371.29078   -445.05895   -1277.2977   -1104.3979 
     215    299.62733   -135466.99   -136378.88    911.88794    -209083.4    99791.777    -10676.25     5249.521    969.92766   -22630.456   -354.26407   -926.26525   -433.77725    297.25029   -391.76759   -1269.7188   -1102.4997 
     216    299.55316   -135466.73    -136378.4    911.66219    -209083.4    99788.824   -10671.917    5248.6505    969.92754   -22630.481   -352.84069   -903.82069   -374.59186    219.89048   -337.70671   -1263.1671   -1096.4518 
     217    299.38249   -135466.48   -136377.62    911.14277    -209083.4    99784.911   -10666.538    5247.6889    969.92744   -22630.209    -353.5462   -890.56577   -309.71601     139.6432   -286.74404   -1257.6541   -1085.9524 
     218    299.15216   -135466.22   -136376.66    910.44181   -209083.41    99780.151   -10660.248    5246.6411    969.92732    -22629.73   -356.32994   -886.16831   -240.07722    57.255704   -242.12943   -1252.2276   -1070.7765 
     219    298.89473   -135465.97   -136375.63    909.65832   -209083.41    99774.661   -10653.187     5245.512    969.92724   -22629.132   -361.58799   -889.86973    -168.1627   -26.731543   -206.42313   -1246.0314   -1051.7486 
     220    298.63781   -135465.71   -136374.59    908.87642   -209083.41    99768.566   -10645.487    5244.3063    969.92716   -22628.493   -369.11282   -900.29553   -95.599919   -111.44302   -181.69437   -1237.5125   -1029.3378 
     221    298.40443   -135465.46   -136373.63    908.16615   -209083.41     99761.97    -10637.27    5243.0283    969.92714   -22627.874   -379.03228   -916.44828   -24.501253    -196.1473   -168.88875   -1225.9553   -1004.4669 
     222    298.21388   -135465.21   -136372.79    907.58623   -209083.41    99754.954   -10628.634    5241.6814     969.9272   -22627.316   -391.33978   -937.65521    42.653993   -279.01813   -168.35492   -1210.2252   -977.33774 
     223    298.08243   -135464.95   -136372.14    907.18618   -209083.41    99747.575   -10619.658    5240.2687    969.92712   -22626.845   -405.83681   -963.75148    103.68858   -357.44754   -179.09636   -1190.4743   -948.36334 
     224    298.02299    -135464.7    -136371.7    907.00528    -209083.4    99739.852    -10610.41    5238.7933    969.92731   -22626.466   -423.09296   -995.05768    154.92774   -429.14893   -199.98964   -1166.0825   -917.13576 
     225    298.04376   -135464.45   -136371.51    907.06847    -209083.4     99731.82   -10600.944    5237.2588    969.92724   -22626.173   -442.57634   -1031.4539    193.84851   -490.12362   -228.95443   -1137.2749   -882.88605 
     226    298.14657   -135464.19   -136371.58    907.38138   -209083.41    99723.495   -10591.312    5235.6697    969.92717   -22625.949   -464.44672   -1072.4993    217.34838   -538.18927   -263.64366    -1103.995   -845.01592 
     227    298.32616   -135463.94   -136371.87    907.92793   -209083.41    99714.905    -10581.56    5234.0317    969.92719   -22625.766   -488.47238    -1116.792    223.25187   -571.87698   -301.68696   -1066.0917   -802.63609 
     228    298.57119   -135463.69   -136372.36    908.67366   -209083.42    99706.095   -10571.727    5232.3517    969.92692   -22625.594   -513.74494   -1162.1562    211.44128    -590.5199   -340.65901   -1023.6769   -755.75951 
     229    298.86717   -135463.43   -136373.01    909.57445   -209083.41    99697.086   -10561.846    5230.6375    969.92697   -22625.399   -540.40045   -1206.2001    182.40384   -597.40509   -378.05497   -976.79144   -705.36616 
     230    299.20053   -135463.17   -136373.76    910.58901    -209083.4    99687.917   -10551.942     5228.898    969.92721   -22625.158   -567.85587   -1246.1932    138.54727   -595.92169   -411.39019   -926.19048   -652.77269 
     231     299.5626   -135462.91    -136374.6    911.69094   -209083.41    99678.633   -10542.039    5227.1427    969.92704   -22624.856   -595.40797   -1279.3777    84.110294    -590.9565   -438.50547   -873.09772   -601.40715 
     232    299.95211   -135462.65   -136375.52    912.87636   -209083.41    99669.238   -10532.157    5225.3817    969.92692   -22624.498   -623.60205   -1304.4941    22.823168   -589.13522   -457.43022   -818.76185    -554.0823 
     233     300.3753   -135462.38   -136376.54    914.16431   -209083.41     99659.74   -10522.317    5223.6258    969.92704   -22624.106   -652.73878   -1320.8782   -40.901324   -596.43678   -466.59048   -765.45056   -514.17559 
     234    300.84357   -135462.11    -136377.7    915.58944   -209083.41     99650.16   -10512.543    5221.8865    969.92716   -22623.722   -683.11664   -1328.1513   -103.44927   -617.74939   -465.02378   -715.07699    -483.6967 
     235    301.36927   -135461.84   -136379.03    917.18936   -209083.41    99640.533   -10502.858     5220.176    969.92711   -22623.398   -714.96889   -1327.4664   -161.19592   -656.24433   -452.98377   -669.41509   -463.81795 
     236    301.96128   -135461.57   -136380.56    918.99109   -209083.41    99630.905   -10493.301    5218.5076    969.92712   -22623.193   -748.68547   -1319.6632   -212.39865   -713.99455   -430.14516   -630.01845   -454.20679 
     237    302.62199    -135461.3   -136382.31     921.0019   -209083.41    99621.373   -10483.928    5216.8958    969.92712   -22623.166   -783.86579   -1305.9009   -255.57968   -790.11675    -397.4247   -597.92333   -453.85215 
     238    303.34663   -135461.04   -136384.25    923.20728   -209083.41    99612.081   -10474.829    5215.3561    969.92711   -22623.374   -819.86466   -1287.1587   -290.24601   -882.18922   -355.40336   -573.55835   -460.89537 
     239    304.12487   -135460.78   -136386.35    925.57577   -209083.41    99603.233   -10466.141    5213.9046    969.92698   -22623.863   -855.47744   -1264.1017   -315.99793   -986.33271   -304.92144   -556.84814   -473.56081 
     240    304.94348   -135460.51   -136388.58    928.06714   -209083.41    99595.065    -10458.05    5212.5577    969.92706   -22624.672   -889.74731   -1237.5833   -333.78662    -1097.872   -246.95673   -546.83546   -490.14205 
     241    305.78886   -135460.25   -136390.89    930.63998    -209083.4    99587.858   -10450.782     5211.331    969.92711   -22625.822   -921.11333   -1207.8938   -343.85798   -1211.5882   -182.80537   -542.26252   -509.39199 
     242    306.64771   -135459.99   -136393.25     933.2538    -209083.4    99581.889    -10444.58    5210.2377    969.92714   -22627.319   -948.16953    -1174.727    -346.8801   -1322.9014   -113.64701   -541.05648   -530.36743 
     243    307.50521   -135459.74    -136395.6    935.86352   -209083.39    99577.382   -10439.663    5209.2877    969.92731   -22629.142   -970.27921   -1138.9967   -343.94492    -1427.896   -41.496812   -540.99955   -552.96924 
     244     308.3413   -135459.49    -136397.9    938.40809    -209083.4    99574.509   -10436.189    5208.4862    969.92725   -22631.238   -986.05561   -1099.7739   -336.10017   -1522.2928    31.776992   -540.79504   -576.89744 
     245    309.12665   -135459.26   -136400.05    940.79823    -209083.4    99573.317   -10434.213     5207.833    969.92717   -22633.519   -995.28431    -1057.413   -325.05583   -1603.3841    103.63602   -538.91771   -602.03282 
     246    309.82059   -135459.03   -136401.94    942.91017    -209083.4     99573.74   -10433.666     5207.322     969.9272   -22635.862   -997.69435   -1011.6832   -313.65052   -1667.7494    171.52401   -534.62436   -628.16186 
     247     310.3723   -135458.81   -136403.39    944.58924    -209083.4    99575.615    -10434.36    5206.9417    969.92705   -22638.114   -992.80386   -961.89712   -304.01436   -1712.5001    233.54791   -528.11667   -654.88477 
     248    310.72565   -135458.59   -136404.26    945.66462   -209083.41     99578.67   -10436.009    5206.6769    969.92683   -22640.111   -980.80955   -908.02232    -299.0053    -1735.401    287.61912   -519.30168    -681.3391 
     249     310.8271   -135458.38   -136404.36    945.97339   -209083.41    99582.579    -10438.27    5206.5095    969.92692   -22641.693   -962.14827   -850.00219   -301.07592   -1735.3667    332.81723   -509.33352   -705.79203 
     250    310.63494   -135458.18   -136403.57    945.38858   -209083.41    99587.024   -10440.795    5206.4218    969.92673   -22642.729    -936.4465   -787.33339   -310.23371   -1711.7724    368.80554   -498.37375   -726.78172 
     251    310.12798   -135457.97   -136401.82    943.84567   -209083.41    99591.677    -10443.28    5206.3974    969.92702   -22643.132   -905.49164   -721.20051   -327.41878   -1667.8556    396.15471   -487.67944   -741.44658 
     252    309.31232   -135457.77   -136399.13    941.36331   -209083.42    99596.321    -10445.51    5206.4243    969.92683   -22642.879   -869.03308   -651.10355   -350.30926   -1605.6864    416.22887   -478.31574   -747.79078 
     253    308.22493   -135457.56   -136395.62    938.05394   -209083.42    99600.784   -10447.391    5206.4957    969.92688   -22642.017   -829.36856   -579.44565   -377.74762   -1530.9124     431.8809   -470.39476   -743.69304 
     254    306.93327   -135457.36   -136391.48     934.1229   -209083.41    99605.025    -10448.97    5206.6108    969.92704    -22640.66    -787.8203   -507.86888   -407.09932   -1448.4927    445.32511   -463.98364   -728.42671 
     255    305.53099   -135457.15   -136387.01    929.85518   -209083.42    99609.122   -10450.424    5206.7746    969.92684   -22638.985    -745.5747   -438.05388   -436.10312   -1362.5671    460.14651   -459.00324   -702.43806 
     256     304.1299   -135456.95   -136382.54    925.59108   -209083.42    99613.207   -10452.037    5206.9968    969.92686   -22637.206   -704.95212   -372.79834   -463.35975   -1278.6983    478.82831   -454.68128   -667.43884 
     257    302.84934   -135456.74   -136378.44    921.69382   -209083.43    99617.491   -10454.155    5207.2893    969.92665   -22635.559    -666.9051   -313.19496   -487.30316   -1200.2172    503.25785   -450.30641   -626.90668 
     258    301.80425   -135456.54   -136375.06    918.51318   -209083.43    99622.184    -10457.13    5207.6642    969.92663   -22634.269   -632.87466   -260.23318   -507.31744   -1131.0734    534.11489   -444.93661   -584.35143 
     259    301.09327   -135456.35    -136372.7    916.34938   -209083.43     99627.47    -10461.27    5208.1313    969.92693    -22633.53   -604.07695   -214.08581   -523.69073   -1074.4543     571.1568   -437.92893   -544.56005 
     260    300.78839   -135456.16   -136371.58    915.42151   -209083.42    99633.493   -10466.792     5208.696    969.92699   -22633.481   -580.90513   -173.87732   -536.07514   -1032.7629    612.71729   -428.23778    -511.6536 
     261    300.92708   -135455.98   -136371.82    915.84361   -209083.43     99640.31   -10473.795    5209.3579    969.92694   -22634.198   -563.78431   -138.31196   -545.04511   -1007.9959    657.03379   -415.28881    -489.4171 
     262    301.50809   -135455.81   -136373.42    917.61184   -209083.42    99647.894   -10482.244      5210.11    969.92702   -22635.685   -552.89119   -105.61776    -552.0565   -1000.9993    701.72105   -398.56264   -480.52199 
     263    302.49137   -135455.65   -136376.25    920.60438   -209083.43    99656.153   -10491.961    5210.9383    969.92689   -22637.879   -547.04324   -73.522143   -556.67629   -1010.9313    744.79913   -377.95139   -486.66599 
     264    303.80235   -135455.49   -136380.09    924.59422   -209083.42    99664.891   -10502.642     5211.822    969.92704   -22640.662   -546.04606   -41.511739   -560.57226   -1036.0542    784.21296   -354.17893   -508.06877 
     265    305.33944   -135455.34   -136384.62    929.27222   -209083.42    99673.889   -10513.873    5212.7346    969.92713   -22643.874   -547.94861   -7.3889125    -563.6775   -1072.7794    818.83331   -328.07397   -543.26173 
     266    306.98357    -135455.2   -136389.48    934.27598   -209083.42    99682.874    -10525.17    5213.6454    969.92702   -22647.331   -551.15726    29.943628   -566.75726   -1116.6582    847.45874    -300.8194   -589.63077 
     267    308.60822   -135455.06   -136394.28    939.22043   -209083.42    99691.548   -10536.021    5214.5214    969.92706   -22650.839   -554.34433    70.790256    -570.7958   -1163.0274    869.35177   -273.76651   -643.63212 
     268    310.08898   -135454.93   -136398.65    943.72699   -209083.42    99699.651   -10545.935    5215.3301    969.92714   -22654.211   -555.65762    116.02666   -576.78441   -1206.2151    883.61775   -248.23029   -701.21729 
     269    311.31218    -135454.8   -136402.25     947.4497   -209083.43    99706.981   -10554.489     5216.042    969.92675   -22657.279   -552.77901    166.76362   -584.15571   -1240.9449    889.50618   -225.62233   -758.85793 
     270    312.18292   -135454.67   -136404.77    950.09972   -209083.43    99713.368   -10561.364    5216.6325    969.92676   -22659.902   -545.11264    222.08095   -594.14594   -1263.2729    885.89941   -206.82393   -813.78267 
     271    312.63298   -135454.54   -136406.01    951.46942   -209083.43    99718.749   -10566.364    5217.0837    969.92673   -22661.976   -530.78171    282.63228   -606.05215   -1268.9253    872.00944   -192.80519   -864.17368 
     272    312.62803   -135454.42   -136405.87    951.45436   -209083.43    99723.108   -10569.423    5217.3846    969.92667   -22663.435   -509.43309    347.99792   -619.99548   -1256.3017    847.78018   -184.09613   -908.50004 
     273    312.17277   -135454.29   -136404.36    950.06881   -209083.43    99726.465   -10570.591    5217.5307    969.92666   -22664.257   -481.33754    417.76959   -636.91924    -1224.863    814.26634   -180.78387   -946.43143 
     274    311.31189   -135454.16   -136401.61    947.44881   -209083.44    99728.861   -10570.018    5217.5234    969.92651   -22664.465   -447.35413    491.55073   -657.53179   -1176.0813     773.5805   -181.88368   -977.41488 
     275    310.12656   -135454.04   -136397.88    943.84137   -209083.43    99730.315   -10567.929    5217.3681    969.92676   -22664.124   -410.16282    568.24737   -684.74434   -1113.9915    729.19196    -185.7443   -1000.7068 
     276    308.72715   -135453.91   -136393.49    939.58239   -209083.43    99730.881   -10564.594    5217.0734    969.92679   -22663.343   -371.63055     647.5566   -720.19181   -1042.2564    684.51573   -190.07546   -1016.0287 
     277    307.24372   -135453.78   -136388.85    935.06771   -209083.43    99730.592   -10560.326    5216.6499    969.92697   -22662.263   -335.26857    727.44485   -766.64019   -966.61038    643.04867   -192.66527    -1022.616 
     278    305.81547   -135453.66   -136384.38    930.72096   -209083.43    99729.522   -10555.461    5216.1087    969.92704   -22661.049   -303.80573    805.61611   -825.72853   -891.30476    607.49156   -191.65597   -1020.2016 
     279    304.57907   -135453.54    -136380.5    926.95809   -209083.43    99727.769   -10550.348    5215.4613    969.92689   -22659.877   -279.86127    878.70503   -897.35705   -820.93178    579.64464   -186.28856   -1008.3431 
     280    303.65617   -135453.43   -136377.58    924.14933   -209083.43    99725.445   -10545.328    5214.7176    969.92694   -22658.911   -266.06677     942.0199   -981.02181   -759.19841    559.71179   -175.98988   -987.11786 
     281    303.14098   -135453.33   -136375.91    922.58141   -209083.43    99722.691   -10540.693    5213.8859    969.92697   -22658.291   -263.78586    992.68123   -1074.5156   -709.52318    547.66169    -161.9672   -956.69282 
     282    303.08959   -135453.24   -136375.66      922.425   -209083.44    99719.645   -10536.655    5212.9718    969.92669   -22658.112   -273.24281    1028.1988   -1174.1116   -673.81563    542.13553    -145.0706   -917.65047 
     283      303.513   -135453.16   -136376.87     923.7136   -209083.43    99716.384   -10533.314    5211.9771    969.92694   -22658.413   -295.21743    1046.9881    -1276.977   -655.66339    541.45297   -127.34032   -871.47332 
     284    304.37525   -135453.09   -136379.43    926.33779   -209083.43    99712.996   -10530.638    5210.9008    969.92689    -22659.18   -327.45816    1050.8885   -1377.9469   -655.31611    543.38556   -110.88764    -819.3713 
     285    305.59654   -135453.03   -136383.09    930.05467   -209083.43    99709.488   -10528.469    5209.7382    969.92687    -22660.34   -368.44087    1041.9771   -1473.3867   -673.91302    545.92062   -97.723566   -763.54094 
     286    307.06068   -135452.98   -136387.49    934.51064   -209083.43    99705.831   -10526.534    5208.4827    969.92691   -22661.774   -415.31396    1024.0438   -1559.3394   -710.64635    547.36979   -89.407386   -706.49692 
     287    308.62589   -135452.95   -136392.22    939.27422   -209083.43    99701.966    -10524.48    5207.1262    969.92684    -22663.33   -464.76161     1000.768   -1631.3605    -763.6923    546.89042   -86.825679   -650.88507 
     288    310.13839   -135452.92   -136396.79    943.87737   -209083.43    99697.802   -10521.915     5205.661    969.92681   -22664.837   -513.48196    974.97355   -1686.4147   -829.00471    544.21721   -90.008085   -599.87125 
     289    311.44832   -135452.89   -136400.75    947.86401   -209083.43    99693.245   -10518.454     5204.081    969.92692   -22666.123   -558.36505     948.8764   -1722.3589   -901.61261    540.15787   -98.304551   -556.01257 
     290    312.42693   -135452.86    -136403.7    950.84232   -209083.43    99688.222   -10513.772    5202.3832    969.92688   -22667.037   -596.33314    923.33088   -1737.2459   -975.08442    535.46955   -110.42119   -521.03188 
     291    312.98274   -135452.83   -136405.37    952.53389   -209083.43    99682.682   -10507.658    5200.5685    969.92684   -22667.458   -625.57067    898.44344   -1732.0698   -1043.0857     531.0175   -124.76242   -495.32529 
     292    313.07338    -135452.8   -136405.61    952.80973   -209083.43    99676.615    -10500.05    5198.6434    969.92695   -22667.321   -645.33657     873.7526   -1708.6529   -1101.1094    527.63806   -139.46684   -478.27612 
     293    312.71033   -135452.77   -136404.47    951.70484   -209083.43    99670.075   -10491.052    5196.6193    969.92703   -22666.617   -655.86985    848.99787   -1670.8282   -1145.7792    524.90065   -152.98978   -467.22905 
     294     311.9553   -135452.74   -136402.14    949.40697   -209083.43     99663.18   -10480.931    5194.5135    969.92688   -22665.399   -658.32948    824.31977   -1623.3189   -1175.9894    522.70154   -163.93381   -459.52233 
     295    310.90909    -135452.7   -136398.93    946.22292   -209083.44    99656.094   -10470.081    5192.3474    969.92681   -22663.776   -654.89869    799.83523   -1571.6977   -1192.8336    520.87711   -171.52903   -452.60203 
     296    309.69596   -135452.68   -136395.21    942.53087   -209083.44    99649.033    -10458.98     5190.146    969.92693   -22661.894   -647.95638    775.46126   -1521.7655   -1197.5649    519.86431    -175.2986   -444.88682 
     297    308.44671   -135452.65   -136391.38    938.72891   -209083.43    99642.248   -10448.138    5187.9357     969.9271   -22659.919   -639.66338    751.62664    -1478.068   -1192.5488    520.31618   -175.34506   -435.98869 
     298    307.28336   -135452.64   -136387.82    935.18836   -209083.43     99635.99   -10438.037    5185.7422     969.9272   -22658.014   -631.88075    728.41432   -1444.2939   -1179.7626    523.24316   -171.82195   -426.04354 
     299    306.30713   -135452.63   -136384.84    932.21727   -209083.42    99630.461   -10429.081    5183.5881    969.92744   -22656.317    -626.4961    705.14698   -1422.9465   -1161.6888     529.4191   -164.69642   -416.36191 
     300    305.59042   -135452.63   -136382.67    930.03604   -209083.42    99625.817   -10421.556    5181.4914    969.92747   -22654.922   -624.20461    681.43341   -1414.9478   -1139.0994    538.81816   -154.11475     -407.246 
     301    305.17276   -135452.64    -136381.4    928.76494   -209083.42    99622.105   -10415.602    5179.4635    969.92749   -22653.877   -625.97613    655.81371   -1420.3531    -1113.389    550.53988    -139.8704   -399.06756 
     302    305.06031   -135452.66   -136381.08    928.42271   -209083.42    99619.279   -10411.202    5177.5087    969.92754   -22653.174   -632.10734    627.32493   -1438.7262   -1084.9207     563.0675   -121.96384   -391.71155 
     303    305.22853   -135452.69   -136381.62    928.93466   -209083.43    99617.201    -10408.19    5175.6248    969.92746   -22652.761    -642.4354     594.4911   -1468.4047   -1053.3926    574.06418   -100.54341   -383.80581 
     304     305.6274   -135452.72   -136382.87    930.14859   -209083.42    99615.646   -10406.274    5173.8035    969.92751   -22652.551    -656.8491      556.186   -1508.8509   -1017.8824    581.66472   -75.662381   -374.71296 
     305    306.18858   -135452.77   -136384.62    931.85649   -209083.42    99614.351   -10405.073    5172.0326    969.92757   -22652.435   -674.66237    510.64268   -1558.1712    -976.4586    584.13729   -46.893051   -363.06533 
     306     306.8333   -135452.81   -136386.63    933.81863   -209083.43    99613.035   -10404.166    5170.2975    969.92757     -22652.3   -695.40355    456.31214   -1615.4915   -927.03128    580.90629   -13.323345   -348.04256 
     307    307.48027   -135452.87   -136388.65    935.78763   -209083.43    99611.439   -10403.132    5168.5836    969.92743   -22652.039   -718.09792     391.1536    -1678.359   -867.08836     571.4736    26.985318   -329.12934 
     308    308.05282   -135452.92   -136390.45    937.53014   -209083.43    99609.345   -10401.606    5166.8777    969.92754   -22651.566   -742.29186    313.80034   -1746.6733    -794.0026    556.37382    75.668234    -306.1747 
     309    308.48513   -135452.98   -136391.83    938.84582   -209083.43    99606.642   -10399.314    5165.1698    969.92752    -22650.82   -766.55035    223.66519   -1818.2366   -705.07959    535.88676    134.06592   -279.83058 
     310    308.72756   -135453.04   -136392.63    939.58364   -209083.44    99603.305   -10396.105    5163.4537    969.92749   -22649.773   -790.04695    121.73738   -1892.4039   -599.47433    510.46412    202.41039   -250.51791 
     311    308.75137   -135453.11   -136392.76     939.6561   -209083.43     99599.41   -10391.963    5161.7275    969.92749    -22648.43   -811.81879    11.315157   -1969.0523   -477.71922    479.77898     279.3046   -219.45094 
     312     308.5522   -135453.17   -136392.22    939.04993   -209083.43     99595.12   -10387.006    5159.9925    969.92753    -22646.82   -831.05899   -102.39672   -2047.3893   -343.39095    444.20507    361.56249    -187.7723 
     313     308.1512   -135453.23   -136391.06    937.82953   -209083.43    99590.644   -10381.456    5158.2523    969.92761   -22644.999   -847.42948   -212.64899   -2127.1861   -202.45341    403.79349    445.47399   -157.12077 
     314    307.59244   -135453.29   -136389.42      936.129   -209083.43    99586.204   -10375.604    5156.5113    969.92761   -22643.033   -861.02345   -312.37722   -2207.8451   -62.848031    360.09051    526.84216   -128.68872 
     315     306.9361   -135453.36   -136387.49     934.1315   -209083.43    99581.995   -10369.761    5154.7729    969.92739   -22640.991    -872.1046   -395.96503   -2288.3831    68.034371    315.12309    603.28782   -103.14918 
     316    306.24858   -135453.43   -136385.47     932.0391   -209083.44    99578.144   -10364.206    5153.0384    969.92733   -22638.938   -881.77181   -460.63573   -2367.9275    183.24778    271.92969    673.54577   -80.106233 
     317    305.59196   -135453.51   -136383.55    930.04073   -209083.43     99574.73   -10359.153    5151.3066    969.92743   -22636.926    -890.7171   -506.33842   -2444.9868    279.17387    233.81996    738.58532   -59.041097 
     318    305.01548   -135453.59   -136381.88    928.28625   -209083.43    99571.776   -10354.724     5149.573    969.92742   -22634.998   -899.38064   -535.15246   -2518.0561    355.06665    204.00213    799.38959   -38.816748 
     319    304.55088   -135453.68   -136380.55    926.87231   -209083.43    99569.251   -10350.948    5147.8308    969.92733   -22633.181   -908.10363   -551.85012   -2584.9805    412.51969    185.12305    858.02846   -18.928464 
     320    304.21227   -135453.77   -136379.62    925.84178   -209083.43    99567.085   -10347.772    5146.0711    969.92731   -22631.497   -917.08464   -561.68542   -2644.1528    454.58435    178.93718    915.55267     1.072153 
     321    303.99952   -135453.87   -136379.07    925.19429   -209083.44    99565.205   -10345.089    5144.2837    969.92718   -22629.959   -925.78091   -569.40977   -2693.3001    485.36714    185.72573    972.05465    21.182864 
     322    303.90359   -135453.97   -136378.88    924.90232   -209083.44    99563.523   -10342.768    5142.4582    969.92706    -22628.58   -934.06828   -579.52916   -2731.2154    508.53976    204.69887    1027.4385    41.212319 
     323    303.91138   -135454.08      -136379    924.92605   -209083.44    99561.968   -10340.679     5140.584    969.92706   -22627.365   -941.63256   -595.06215   -2757.1477    527.31219    234.31146    1080.0104    60.768108 
     324    304.00884   -135454.18   -136379.41    925.22264   -209083.44    99560.478    -10338.71    5138.6517    969.92712   -22626.315   -948.54303   -617.01884   -2772.3729    543.76267      272.017     1127.926    79.972097 
     325    304.18203   -135454.29   -136380.04    925.74973   -209083.44    99559.007   -10336.766    5136.6528    969.92698   -22625.419   -954.62456   -645.49084   -2777.9559    559.57304    315.50372    1169.0552    98.448846 
     326    304.41728    -135454.4   -136380.87    926.46571   -209083.44    99557.492   -10334.768    5134.5801    969.92707   -22624.657   -960.70357   -680.17673   -2776.7423    574.80832    362.53095    1201.2453    116.50083 
     327    304.70158   -135454.51   -136381.84    927.33094   -209083.44    99555.887   -10332.646    5132.4281     969.9271       -22624   -966.91388   -719.90719   -2770.5058    589.67133    411.30083    1222.3932    134.07743 
     328    305.02389   -135454.63   -136382.94    928.31185   -209083.44     99554.13   -10330.336     5130.193     969.9272   -22623.416   -974.14756   -764.08678   -2761.9451    603.58918    460.51071    1230.3461    151.92475 
     329    305.37698   -135454.74   -136384.13    929.38644   -209083.44    99552.171   -10327.779    5127.8733    969.92702   -22622.881   -982.59447   -812.48981   -2751.3078    616.01418    508.89642    1224.1631    170.28486 
     330    305.75843   -135454.86   -136385.41    930.54736   -209083.44    99549.939   -10324.925    5125.4696    969.92709   -22622.379   -993.46327    -866.0748   -2739.9344    625.61944    555.69679    1202.9276    190.51688 
     331    306.17002   -135454.98   -136386.78    931.80001   -209083.45    99547.396   -10321.731     5122.985    969.92696   -22621.913   -1006.5696   -925.37514   -2726.1542    631.82046     598.9888     1167.095    213.15999 
     332    306.61518   -135455.11   -136388.26     933.1548   -209083.45    99544.478   -10318.154    5120.4246    969.92703   -22621.495   -1023.0627   -993.16933   -2709.1696    633.15065    637.20181    1117.9009    238.73335 
     333    307.09546   -135455.24   -136389.86    934.61648   -209083.45    99541.162   -10314.144    5117.7952    969.92687   -22621.146   -1042.2939   -1069.4345   -2686.7802    629.33305    668.08827    1057.3523     267.4059 
     334    307.60658   -135455.38   -136391.55    936.17203   -209083.44    99537.391   -10309.642    5115.1049    969.92705   -22620.885   -1065.1095   -1156.3499   -2658.7009    619.72241    689.31228    988.83791    298.85844 
     335    308.13531   -135455.52    -136393.3    937.78118   -209083.45    99533.151   -10304.573    5112.3623    969.92695   -22620.721   -1090.3779    -1253.288   -2622.9215    605.07583    699.57688    915.35795     332.4107 
     336     308.6579   -135455.68   -136395.05    939.37164   -209083.46    99528.394    -10298.85    5109.5767     969.9268   -22620.638   -1117.9739   -1359.6061   -2580.6333    586.31762    698.60728    840.79939    366.72232 
     337    309.14086   -135455.84   -136396.68    940.84146   -209083.46    99523.075   -10292.381    5106.7573     969.9268   -22620.598   -1147.3634   -1473.8291   -2532.2385    563.97723    687.14366     768.5202    400.90456 
     338    309.54402      -135456   -136398.07    942.06846   -209083.46    99517.162   -10285.078    5103.9136     969.9268   -22620.539   -1177.5537   -1592.9068   -2479.1086    539.35417    667.01549    701.47478    434.00688 
     339    309.82496   -135456.18    -136399.1    942.92346   -209083.46    99510.619   -10276.868    5101.0554    969.92688   -22620.378   -1208.0556   -1713.6385   -2423.0946    512.56635    641.03205     641.3265    464.89558 
[...]
    9920    308.12944   -135533.67   -136471.43    937.76332   -209083.42     99553.55   -10341.407    5110.8646    969.92764   -22680.947   -1430.9971   -1429.1232   -1100.7896   -1763.0785    652.22732   -742.61806    56.120581 
    9921    309.01221   -135533.78   -136474.23    940.44995   -209083.43    99551.672    -10340.03    5111.1458    969.92751   -22683.518   -1446.4954   -1417.6819   -1115.7066   -1806.0976    567.27669   -714.01598    41.188088 
    9922    309.67047   -135533.89   -136476.35    942.45329   -209083.42    99549.881   -10338.537    5111.4725    969.92764    -22685.67   -1460.0028   -1403.7358   -1122.7685   -1853.5041    482.51765   -682.12417    31.772687 
    9923    310.07219   -135534.02   -136477.69     943.6759   -209083.42    99548.417   -10337.206    5111.8644    969.92762   -22687.272   -1470.2503   -1390.0288   -1119.5604   -1901.1618    399.92974   -646.42123    27.425415 
    9924    310.19344   -135534.14   -136478.19    944.04491   -209083.42     99547.49   -10336.299    5112.3415    969.92765   -22688.226   -1476.5689   -1378.6249   -1105.9314   -1945.1505    321.33387   -607.15421    26.909934 
    9925     310.0201   -135534.28    -136477.8    943.51737   -209083.42     99547.27    -10336.02    5112.9217    969.92763   -22688.471   -1478.2117   -1370.6057   -1082.0304    -1981.999    248.28531   -565.07268    28.012422 
    9926    309.55043   -135534.42   -136476.51    942.08797   -209083.43    99547.865   -10336.497    5113.6193    969.92744   -22687.988   -1474.3352   -1365.5983   -1048.4917   -2008.9158    181.94854   -520.33037    27.600575 
    9927    308.79712   -135534.56   -136474.36    939.79532   -209083.44    99549.288   -10337.775    5114.4444    969.92738   -22686.806   -1465.0226   -1362.3516   -1007.2209   -2025.4952    123.74987   -473.65217    23.301825 
    9928    307.78751   -135534.71   -136471.44    936.72269   -209083.44    99551.491   -10339.827    5115.4025    969.92744   -22684.992   -1450.4488    -1359.052   -960.89083   -2031.4036    74.992372   -424.80377    12.425518 
    9929    306.56161   -135534.87   -136467.86    932.99176   -209083.44    99554.376   -10342.569    5116.4945    969.92743   -22682.649    -1431.176   -1353.1561   -912.04978   -2028.3222    36.328954   -373.15579   -6.3515186 
    9930    305.16795   -135535.03   -136463.78     928.7503   -209083.45     99557.82   -10345.893    5117.7182    969.92717   -22679.903   -1407.8159   -1342.0988   -863.73081   -2017.6179    8.4261157   -317.69836   -32.979014 
    9931    303.65889    -135535.2   -136459.35     924.1576   -209083.45     99561.68   -10349.689    5119.0685    969.92714   -22676.889   -1381.7534    -1324.574   -819.17008   -2001.5163    -8.839082   -257.99496   -66.257005 
    9932     302.0864   -135535.37   -136454.74    919.37189   -209083.45    99565.855    -10353.87    5120.5387    969.92724   -22673.743   -1353.9365    -1299.178   -781.32812   -1981.3033   -16.822756   -193.76091   -103.84753 
    9933    300.49933   -135535.54   -136450.09    914.54178   -209083.45    99570.293   -10358.384    5122.1212    969.92716   -22670.591   -1324.6207   -1264.7737   -751.47606   -1957.6123    -17.68195   -125.92643   -142.95556 
    9934     298.9417   -135535.72   -136445.53    909.80129   -209083.45    99574.951   -10363.218    5123.8076    969.92724   -22667.544   -1294.9805   -1221.6147    -731.2903   -1932.0366   -14.040393   -56.168414   -180.46694 
    9935    297.45238   -135535.91   -136441.18    905.26868   -209083.44     99579.83   -10368.381    5125.5883    969.92749   -22664.699    -1265.251   -1169.7425    -720.3605   -1905.6501   -9.2578024    13.457077    -213.4763 
    9936    296.06554   -135536.09   -136437.14    901.04796   -209083.43    99584.938    -10373.89    5127.4532    969.92782    -22662.14   -1236.0832   -1110.3036    -717.9989   -1879.9472   -5.9554743    80.658354   -239.90581 
    9937    294.81195   -135536.28   -136433.52    897.23276   -209083.43    99590.306    -10379.76    5129.3907    969.92779   -22659.947   -1207.1539   -1044.2554   -722.20352   -1855.0027   -6.3537003    143.45302   -258.05748 
    9938    293.72041   -135536.47   -136430.38    893.91078   -209083.43     99595.92   -10385.996    5131.3882    969.92791   -22658.193   -1179.4772   -974.41244   -732.05757   -1831.9616   -11.766361    199.83809   -266.73456 
    9939    292.81934   -135536.66   -136427.83    891.16844   -209083.43    99601.783   -10392.591    5133.4317    969.92784   -22656.948    -1152.888   -902.84259   -745.65389   -1810.1676   -22.108935    248.67455   -265.97624 
    9940    292.13712   -135536.85   -136425.94    889.09216   -209083.44    99607.872   -10399.536    5135.5063    969.92775   -22656.274   -1128.1495   -832.58266    -762.4924   -1789.3733   -36.388868    288.93034   -256.25267 
    9941     291.7009   -135537.04    -136424.8    887.76456   -209083.44    99614.167   -10406.829    5137.5962    969.92753   -22656.218   -1105.5599   -765.26674   -781.71936   -1769.6936   -52.507902    320.19919   -239.15299 
    9942    291.53336   -135537.22   -136424.48    887.25468   -209083.44    99620.627   -10414.468    5139.6844    969.92752   -22656.804   -1086.2521   -702.59969    -803.9626   -1752.1941   -67.671249    342.30074    -216.7486 
    9943    291.64818   -135537.41   -136425.02    887.60414   -209083.44    99627.219   -10422.449    5141.7532    969.92761   -22658.022   -1070.5414   -644.96937    -828.0947   -1738.5601    -78.66445    355.20078   -191.67324 
    9944    292.04538    -135537.6   -136426.42    888.81296   -209083.43    99633.879   -10430.749    5143.7837    969.92791   -22659.824   -1059.5838   -592.75148   -854.67624   -1731.3237   -82.506605    359.68984   -167.27102 
    9945    292.70827    -135537.8   -136428.63    890.83041   -209083.43    99640.545    -10439.31    5145.7563      969.928   -22662.117   -1053.4951   -545.25496   -882.29461   -1732.9358    -76.43568    356.29387   -146.36976 
    9946    293.60317   -135537.99   -136431.55    893.55395   -209083.43     99647.12   -10448.038    5147.6511    969.92784   -22664.778   -1052.6303   -502.32976   -909.97527   -1745.5858   -58.414416    346.27882   -131.31535 
    9947    294.68176    -135538.2   -136435.03    896.83654   -209083.43    99653.487   -10456.808    5149.4485    969.92783   -22667.656   -1057.2594   -464.14855   -936.80968     -1770.82   -27.848024    331.26052   -123.81809 
    9948    295.88547    -135538.4    -136438.9    900.49992   -209083.43    99659.541   -10465.476    5151.1304     969.9279   -22670.591   -1067.0318    -431.3238   -961.46133   -1808.3102     14.85812    312.78736   -124.85144 
    9949    297.15085   -135538.61   -136442.96      904.351   -209083.43    99665.198   -10473.902    5152.6811    969.92784   -22673.429   -1081.1027    -403.9947   -982.22484   -1857.0887    67.648291    292.13639   -134.78692 
    9950    298.41467   -135538.81   -136447.01     908.1973   -209083.43    99670.398   -10481.965    5154.0878    969.92795   -22676.032   -1098.8153   -383.27622   -999.07613   -1914.0934    127.35914    270.27014   -153.13115 
    9951    299.61798   -135539.03   -136450.89    911.85948   -209083.43    99675.137   -10489.568    5155.3412    969.92793   -22678.292   -1118.4344   -368.89172    -1010.886   -1975.5254    190.31065    247.13053   -178.95204 
    9952    300.70853   -135539.24   -136454.42    915.17847   -209083.43    99679.422   -10496.647     5156.435    969.92792   -22680.127   -1138.9834   -361.46092   -1018.2544   -2037.2349    253.18845    222.35105   -210.97238 
    9953    301.64141   -135539.46   -136457.48     918.0176   -209083.43    99683.298   -10503.151    5157.3658    969.92786   -22681.488    -1158.809   -360.81456    -1021.031   -2094.5815    312.36815    194.91265   -247.37694 
    9954    302.37859   -135539.69   -136459.95    920.26113   -209083.43    99686.812   -10509.032    5158.1317    969.92784   -22682.355   -1176.7476   -366.70106   -1020.0208   -2143.5211    365.91696    163.93889   -286.54154 
    9955    302.88895   -135539.92   -136461.73    921.81438   -209083.44    99690.011    -10514.24    5158.7324    969.92783   -22682.728    -1191.674   -378.31133   -1015.8807   -2180.8298    411.91951    128.52754   -326.82828 
    9956    303.15009   -135540.15   -136462.76    922.60911   -209083.44    99692.935   -10518.722     5159.168    969.92776   -22682.631   -1202.5356   -394.26878    -1009.399   -2203.9391     449.4164     88.07004   -366.87998 
    9957    303.15217   -135540.39      -136463    922.61545   -209083.44    99695.606   -10522.434    5159.4398     969.9278   -22682.104   -1208.9294   -414.10455   -1001.3241   -2211.3595    478.00665    43.100371   -406.14617 
    9958    302.90247   -135540.63   -136462.48    921.85552   -209083.44    99698.046   -10525.359    5159.5497    969.92784   -22681.207   -1210.4511   -436.55975   -992.12139   -2202.6722    497.48905   -6.1749116   -443.81397 
    9959    302.42781   -135540.86   -136461.28    920.41095   -209083.44    99700.267   -10527.517    5159.5012    969.92789   -22680.016   -1207.3992   -461.79484   -981.50928   -2178.8935    507.53298   -59.495909    -479.3784 
    9960    301.77292   -135541.11   -136459.52    918.41782   -209083.44    99702.264   -10528.961    5159.2991    969.92799   -22678.618   -1200.5565   -490.65649   -969.21744   -2141.7955     509.3424   -116.18921    -512.5743 
    9961    300.99422   -135541.35    -136457.4    916.04793   -209083.43    99704.025   -10529.762    5158.9497    969.92801   -22677.104    -1190.866    -524.5092    -953.6637   -2094.4252     503.7841   -175.09306   -542.67413 
    9962    300.15089    -135541.6   -136455.08    913.48133   -209083.43    99705.515   -10529.994    5158.4607    969.92815   -22675.561   -1179.6374   -564.76445   -933.69906   -2040.4487    493.57199   -235.19199    -568.9838 
    9963    299.29605   -135541.86   -136452.74     910.8797   -209083.43    99706.693   -10529.705    5157.8411    969.92823   -22674.064    -1167.662   -611.31239   -907.61238   -1984.0612    481.80872    -294.9953   -590.72119 
    9964    298.47081   -135542.12   -136450.49    908.36818   -209083.43    99707.499   -10528.917    5157.1006    969.92829   -22672.673   -1155.9063   -663.90181   -874.93087   -1928.8861    472.00779    -351.3174   -606.80971 
    9965    297.70291   -135542.39   -136448.42    906.03114   -209083.42    99707.872   -10527.619    5156.2492    969.92838   -22671.426   -1144.9143   -720.06362   -837.02228   -1877.6569    467.55109   -400.94652   -616.19073 
    9966    297.00942   -135542.66   -136446.58    903.92056   -209083.43     99707.75    -10525.78    5155.2971    969.92833   -22670.348   -1134.8934   -777.03241   -795.79299   -1831.8547    470.21313   -440.44703   -617.85448 
    9967    296.40184   -135542.94   -136445.01    902.07146   -209083.43    99707.059   -10523.367    5154.2541     969.9283   -22669.453   -1126.6745   -832.08719   -755.58823   -1792.3481    481.08783   -466.88952   -611.41888 
    9968    295.89075   -135543.21   -136443.73      900.516   -209083.43    99705.747   -10520.354    5153.1302    969.92833   -22668.751   -1120.6853   -883.43491   -719.56798   -1759.0529    499.47908   -478.37537   -596.66859 
    9969     295.4882   -135543.49   -136442.78    899.29086   -209083.43     99703.78   -10516.743    5151.9348    969.92827   -22668.253    -1117.409   -929.68673   -691.36629   -1731.1741    524.06688   -475.27455   -574.74829 
    9970    295.20747   -135543.78   -136442.21    898.43651   -209083.43    99701.151   -10512.564    5150.6778    969.92821   -22667.972   -1117.5846   -971.57939   -672.59354    -1708.581    553.20117   -458.51105   -546.13619 
    9971    295.06099   -135544.06   -136442.05    897.99071   -209083.44    99697.884   -10507.876    5149.3692    969.92814   -22667.923   -1121.6166   -1010.0881   -664.27657    -1690.485    584.85222   -430.44734   -512.34915 
    9972    295.05761   -135544.35   -136442.33    897.98042   -209083.44    99694.031   -10502.759    5148.0191     969.9281   -22668.116   -1129.8677   -1047.2115   -666.22287   -1676.1687    617.72333   -393.38721   -473.77713 
    9973     295.2003   -135544.65   -136443.06    898.41467   -209083.43    99689.674   -10497.315    5146.6374    969.92815   -22668.553   -1142.4641   -1084.7991   -678.02114   -1664.5722    649.99334   -350.45438   -431.35159 
    9974    295.48454   -135544.95   -136444.23    899.27973   -209083.44    99684.928   -10491.657    5145.2341    969.92802   -22669.222   -1158.4997   -1123.8532   -698.24902   -1653.3968    680.73566   -304.72834   -385.65921 
    9975    295.89691   -135545.25   -136445.79    900.53473   -209083.44    99679.906   -10485.909    5143.8184    969.92816   -22670.096   -1177.8998    -1164.972   -726.31963   -1642.4077    708.95187   -258.88398   -337.16874 
    9976     296.4143   -135545.56   -136447.67    902.10936   -209083.43    99674.754   -10480.191    5142.3987     969.9282   -22671.131   -1199.2601   -1207.2932   -760.58316   -1629.9038    734.60558   -216.81498   -287.11873 
    9977    297.00442   -135545.88   -136449.78    903.90534   -209083.43    99669.617   -10474.616    5140.9818    969.92831   -22672.267   -1221.5091   -1249.1599   -799.89181   -1615.4756    757.94342    -181.2912    -235.6209 
    9978    297.62831    -135546.2      -136452    905.80411   -209083.42    99664.632    -10469.28     5139.573    969.92838   -22673.432   -1243.4048   -1288.9372   -842.83341   -1598.4438    780.36035    -155.0566   -182.95449 
    9979    298.24554   -135546.52   -136454.21    907.68258   -209083.43     99659.93   -10464.263    5138.1762    969.92818   -22674.544   -1263.4574   -1324.5774   -887.68457   -1578.1103    804.07494   -140.57061   -128.60918 
    9980    298.82065   -135546.85   -136456.28    909.43288   -209083.44    99655.592   -10459.626    5136.7934      969.928    -22675.53   -1281.1572   -1355.8822   -933.12632   -1554.4629     831.6434   -139.09844   -71.870264 
    9981     299.3284   -135547.17   -136458.15    910.97817   -209083.44     99651.67   -10455.412    5135.4255    969.92806   -22676.327   -1296.2252   -1382.8244   -977.70959   -1528.1418    864.53312    -151.9922   -11.706305 
    9982    299.75519    -135547.5   -136459.78    912.27705   -209083.43    99648.185   -10451.632    5134.0726     969.9281   -22676.898   -1308.6213   -1406.5436   -1019.2476   -1500.0725    903.60608   -179.16121    52.882567 
    9983    300.09679   -135547.84   -136461.15     913.3167   -209083.44    99645.119   -10448.265    5132.7339    969.92802   -22677.229   -1318.5836   -1428.4419   -1055.3913   -1471.9177    947.16222   -219.92119    121.66592 
    9984    300.35475   -135548.17   -136462.27    914.10176   -209083.44    99642.416   -10445.254    5131.4082    969.92798   -22677.331   -1326.8561   -1451.0153   -1084.3037   -1445.2493    992.37375   -272.84952    193.74274 
    9985    300.53372   -135548.51   -136463.16    914.64644   -209083.44    99640.009   -10442.519    5130.0942    969.92795   -22677.229   -1333.7501   -1476.2273   -1103.8196   -1421.2035    1034.5959   -335.00128    266.71925 
    9986    300.64105   -135548.86   -136463.83    914.97311   -209083.44    99637.819   -10439.966    5128.7908    969.92785   -22676.958   -1339.7486   -1505.2306   -1113.5289   -1400.4863    1069.2328   -403.15813    337.58721 
    9987    300.68804   -135549.21   -136464.32    915.11611   -209083.45    99635.756   -10437.503    5127.4968     969.9278   -22676.555   -1345.3093   -1538.3449   -1113.8122   -1383.7707     1091.145    -473.0283    402.80007 
    9988    300.69189   -135549.56   -136464.69    915.12783   -209083.44    99633.729   -10435.061    5126.2114    969.92787   -22676.051   -1351.0933   -1574.7958   -1106.4229   -1372.0611    1096.9424   -539.93497    458.77469 
    9989    300.67707   -135549.91      -136465    915.08273   -209083.44    99631.657   -10432.598    5124.9343    969.92791   -22675.477   -1357.6974   -1612.9858   -1093.3927   -1366.7135    1084.5089   -599.43575    502.68403 
    9990    300.67489   -135550.27   -136465.35    915.07608   -209083.44    99629.473   -10430.113    5123.6661    969.92795   -22674.864   -1365.9527   -1651.5648   -1077.0207   -1369.2724     1054.193   -647.47606    532.44581 
    9991    300.72065   -135550.64   -136465.86    915.21535   -209083.44    99627.128   -10427.637     5122.408    969.92814   -22674.248   -1376.8869    -1689.438   -1059.9195   -1381.3032    1007.7381   -680.79189    547.70334 
    9992    300.84898   -135551.02   -136466.62     915.6059   -209083.44    99624.616    -10425.22    5121.1623    969.92805   -22673.669   -1390.8961   -1726.5743   -1043.4955   -1402.6184     948.4825   -697.44141    548.43152 
    9993     301.0886    -135551.4   -136467.73    916.33518   -209083.44    99621.936   -10422.914    5119.9317    969.92806   -22673.174    -1408.742   -1763.8917   -1029.1848   -1433.1496     880.8014   -696.71945    536.20849 
    9994    301.45828   -135551.79   -136469.25    917.46027   -209083.44    99619.107   -10420.746    5118.7188    969.92804   -22672.812   -1430.3992   -1802.5833   -1017.8474   -1470.7669    808.85755   -678.44237    512.84371 
    9995    301.96473   -135552.19   -136471.19    919.00158   -209083.45    99616.141   -10418.706    5117.5255    969.92794   -22672.629   -1455.5017   -1844.0042   -1010.3338   -1512.1672    736.75198   -643.78599    480.64753 
    9996    302.60309    -135552.6   -136473.54    920.94437   -209083.44    99613.013   -10416.736    5116.3523    969.92829    -22672.66   -1484.5155   -1890.6607    -1008.345   -1554.5408    667.50363   -594.17687    442.38335 
    9997    303.35957   -135553.01   -136476.26    923.24665   -209083.45    99609.733   -10414.744    5115.1984    969.92808   -22672.928    -1515.537   -1941.7833    -1012.234   -1592.5937     603.7567    -531.9241    400.50739 
    9998    304.21464   -135553.44   -136479.29    925.84898   -209083.44    99606.236    -10412.63    5114.0618    969.92823   -22673.438    -1549.369   -1998.1209     -1025.31   -1624.6762    546.81748   -459.53161    357.54397 
    9999    305.14572   -135553.87   -136482.55    928.68263   -209083.44     99602.51   -10410.308    5112.9402    969.92827   -22674.177   -1584.8016    -2057.521   -1048.9116   -1647.9721    497.13466   -380.79412    315.57761 
   10000    306.12758   -135554.31   -136485.98    931.67082   -209083.45    99598.555   -10407.732    5111.8315    969.92811   -22675.113   -1621.1557   -2116.6696   -1085.0814   -1661.7161    454.82091   -299.72655    276.02408 
Loop time of 1301 on 16 procs for 10000 steps with 1532 atoms

Performance: 0.664 ns/day, 36.139 hours/ns, 7.686 timesteps/s
97.3% CPU use with 16 MPI tasks x 1 OpenMP threads

MPI task timing breakdown:
Section |  min time  |  avg time  |  max time  |%varavg| %total
---------------------------------------------------------------
Pair    | 493.72     | 522.19     | 544.71     |  61.9 | 40.14
Bond    | 0.0084021  | 0.012457   | 0.018925   |   2.4 |  0.00
Neigh   | 27.429     | 27.43      | 27.431     |   0.0 |  2.11
Comm    | 6.6616     | 29.856     | 58.339     | 259.7 |  2.29
Output  | 12.311     | 12.446     | 14.368     |  14.1 |  0.96
Modify  | 707.6      | 707.76     | 707.82     |   0.2 | 54.40
Other   |            | 1.302      |            |       |  0.10

Nlocal:    95.75 ave 105 max 83 min
Histogram: 3 1 0 0 1 3 1 1 2 4
Nghost:    5443.62 ave 5501 max 5378 min
Histogram: 1 0 2 2 4 2 1 0 1 3
Neighs:    105046 ave 115246 max 91978 min
Histogram: 3 1 0 0 3 0 2 2 1 4

Total # of neighbors = 1680739
Ave neighs/atom = 1097.09
Ave special neighs/atom = 1.33159
Neighbor list builds = 427
Dangerous builds = 0
unfix           1
undump          1


Please see the log.cite file for references relevant to this simulation

Total wall time: 0:21:41
