# Data file generated from 2*2*2 super cell of equilibiumed 64water system
# replace 1/3 and 2/3 on diagnoal line to Na and Cl
# 64*8=512 H2O and repalce two of them into Na and Cl
# 510H2O + Cl + Na
# in order to test literature with SPC/E and KBFF force field. update the charge for H O with 0.4238 and -0.8476 and Cl Na with -1 and +1
# rexpon with LJ with pqeq. But with no charge update! fixed charge as SPC/E for H2O and 1/-1 for NaCl

1532    atoms
1020	bonds
510	angles


4 atom types
1 bond types
1 angle types


0.0000 24.8632 xlo xhi
0.0000 24.8632 ylo yhi
0.0000 24.8632 zlo zhi

Masses

1 1.007940   # H 
2 15.999400   # O 
3 35.452700   # Cl
4 22.989770   # Na


Atoms

1	1	2	-0.8476	7.53332	5.69121	8.5306	0	0	0
2	1	1	0.4238	7.40274	6.63015	8.39798	0	0	0
3	1	1	0.4238	8.34563	5.63053	9.03329	0	0	0
4	2	2	-0.8476	1.4582	1.9442	8.8169	0	0	0
5	2	1	0.4238	2.0098	1.289	9.2442	0	0	0
6	2	1	0.4238	1.9366	2.179	8.0218	0	0	0
7	3	2	-0.8476	5.86677	4.61916	3.504	0	0	0
8	3	1	0.4238	6.80108	4.51888	3.3217	0	0	0
9	3	1	0.4238	5.82391	4.80497	4.442	0	0	0
10	4	2	-0.8476	4.8451	2.0052	3.18418	0	0	0
11	4	1	0.4238	4.8088	2.9232	3.45282	0	0	0
12	4	1	0.4238	5.2878	2.0208	2.3356	0	0	0
13	5	2	-0.8476	2.5866	0.3731	0.77141	0	0	0
14	5	1	0.4238	1.6932	0.0324	0.81663	0	0	0
15	5	1	0.4238	2.8133	0.3296	-0.15755	0	0	0
16	6	2	-0.8476	11.2806	3.9811	11.5441	0	0	0
17	6	1	0.4238	11.5308	4.7844	12.0007	0	0	0
18	6	1	0.4238	10.6632	3.5511	12.1358	0	0	0
19	7	2	-0.8476	12.5597	11.0955	9.9385	0	0	0
20	7	1	0.4238	12.8303	10.8002	10.8079	0	0	0
21	7	1	0.4238	11.8533	11.7194	10.1061	0	0	0
22	8	2	-0.8476	7.40824	2.3121	10.2748	0	0	0
23	8	1	0.4238	6.59927	2.0372	10.7063	0	0	0
24	8	1	0.4238	7.23959	2.1797	9.34195	0	0	0
25	9	2	-0.8476	9.3801	10.6423	0.24804	0	0	0
26	9	1	0.4238	9.0348	11.4736	0.57364	0	0	0
27	9	1	0.4238	8.99624	10.548	-0.62373	0	0	0
28	10	2	-0.8476	10.8984	8.7494	4.14676	0	0	0
29	10	1	0.4238	10.3988	8.5948	4.94848	0	0	0
30	10	1	0.4238	11.8139	8.6809	4.41751	0	0	0
31	11	2	-0.8476	7.4359	7.0488	0.6726	0	0	0
32	11	1	0.4238	8.1957	7.1131	1.2513	0	0	0
33	11	1	0.4238	7.3876	6.121	0.4423	0	0	0
34	12	2	-0.8476	2.0127	3.45195	4.93519	0	0	0
35	12	1	0.4238	1.7175	2.97761	4.15794	0	0	0
36	12	1	0.4238	1.2053	3.70786	5.38116	0	0	0
37	13	2	-0.8476	4.5959	8.6055	0.2621	0	0	0
38	13	1	0.4238	5.2244	8.1192	-0.2716	0	0	0
39	13	1	0.4238	4.8457	9.5228	0.1508	0	0	0
40	14	2	-0.8476	2.85443	6.2886	6.94969	0	0	0
41	14	1	0.4238	2.3022	6.0114	7.6807	0	0	0
42	14	1	0.4238	2.2837	6.8384	6.41277	0	0	0
43	15	2	-0.8476	9.62121	2.6567	0.7228	0	0	0
44	15	1	0.4238	10.1358	1.8527	0.7936	0	0	0
45	15	1	0.4238	9.66654	3.0482	1.5951	0	0	0
46	16	2	-0.8476	5.3384	11.5143	12.6793	0	0	0
47	16	1	0.4238	4.8262	12.3061	12.8436	0	0	0
48	16	1	0.4238	5.3816	11.4501	11.7252	0	0	0
49	17	2	-0.8476	10.7961	5.5539	3.91969	0	0	0
50	17	1	0.4238	10.6709	6.5027	3.90194	0	0	0
51	17	1	0.4238	11.56	5.4021	3.36321	0	0	0
52	18	2	-0.8476	5.0305	7.4335	2.9871	0	0	0
53	18	1	0.4238	5.4372	7.7585	2.1839	0	0	0
54	18	1	0.4238	4.7157	6.5586	2.7597	0	0	0
55	19	2	-0.8476	9.50709	11.6906	3.70676	0	0	0
56	19	1	0.4238	9.99897	11.2675	4.41056	0	0	0
57	19	1	0.4238	10.1787	12.0361	3.1187	0	0	0
58	20	2	-0.8476	10.8242	11.1721	6.1454	0	0	0
59	20	1	0.4238	10.4707	11.8403	6.7325	0	0	0
60	20	1	0.4238	11.7373	11.4272	6.0135	0	0	0
61	21	2	-0.8476	8.44857	10.8707	10.1838	0	0	0
62	21	1	0.4238	8.79001	11.3374	9.42097	0	0	0
63	21	1	0.4238	8.61091	9.94698	9.9924	0	0	0
64	22	2	-0.8476	2.74275	9.33059	3.6862	0	0	0
65	22	1	0.4238	2.2964	9.18835	2.8514	0	0	0
66	22	1	0.4238	3.53763	8.80062	3.6267	0	0	0
67	23	2	-0.8476	2.91139	12.7899	10.3705	0	0	0
68	23	1	0.4238	2.0989	12.2853	10.4079	0	0	0
69	23	1	0.4238	3.54515	12.1949	9.96975	0	0	0
70	24	2	-0.8476	8.61111	1.5143	4.78942	0	0	0
71	24	1	0.4238	9.19518	1.71754	5.52002	0	0	0
72	24	1	0.4238	9.00725	0.75	4.37092	0	0	0
73	25	2	-0.8476	0.202	8.5767	8.79801	0	0	0
74	25	1	0.4238	0.7891	8.9761	8.15608	0	0	0
75	25	1	0.4238	-0.0712	9.3033	9.35804	0	0	0
76	26	2	-0.8476	3.2946	2.01446	6.80114	0	0	0
77	26	1	0.4238	3.0668	2.22876	5.89648	0	0	0
78	26	1	0.4238	4.1193	2.47492	6.95644	0	0	0
79	27	2	-0.8476	1.0249	8.0172	5.34289	0	0	0
80	27	1	0.4238	1.0838	8.7413	5.96623	0	0	0
81	27	1	0.4238	1.5978	8.275	4.62073	0	0	0
82	28	2	-0.8476	8.03332	8.1752	10.5249	0	0	0
83	28	1	0.4238	7.99746	8.1168	11.4796	0	0	0
84	28	1	0.4238	8.79792	7.6535	10.2811	0	0	0
85	29	2	-0.8476	7.50344	4.514	12.4115	0	0	0
86	29	1	0.4238	7.89109	4.0568	13.1578	0	0	0
87	29	1	0.4238	7.80729	4.0253	11.6466	0	0	0
88	30	2	-0.8476	3.65972	4.54132	12.3587	0	0	0
89	30	1	0.4238	2.88191	4.45978	11.8068	0	0	0
90	30	1	0.4238	4.11259	5.31467	12.0225	0	0	0
91	31	2	-0.8476	9.3081	0.0331	8.143	0	0	0
92	31	1	0.4238	9.8055	0.7512	8.5345	0	0	0
93	31	1	0.4238	8.4896	0.4371	7.8548	0	0	0
94	32	2	-0.8476	11.0525	0.5991	1.6079	0	0	0
95	32	1	0.4238	11.5396	1.2708	2.0853	0	0	0
96	32	1	0.4238	11.7275	0.0667	1.1871	0	0	0
97	33	2	-0.8476	0.68504	2.301	2.3181	0	0	0
98	33	1	0.4238	1.35874	2.4136	1.6475	0	0	0
99	33	1	0.4238	0.21061	3.1323	2.3236	0	0	0
100	34	2	-0.8476	11.6888	7.08528	11.8079	0	0	0
101	34	1	0.4238	12.1544	7.64651	11.1878	0	0	0
102	34	1	0.4238	11.0839	7.67499	12.2579	0	0	0
103	35	2	-0.8476	2.8297	5.4134	2.4785	0	0	0
104	35	1	0.4238	3.4391	4.991	1.8732	0	0	0
105	35	1	0.4238	3.0007	4.9951	3.3222	0	0	0
106	36	2	-0.8476	7.77199	0.5838	0.7699	0	0	0
107	36	1	0.4238	6.90815	0.4025	0.3995	0	0	0
108	36	1	0.4238	8.09665	1.3308	0.2671	0	0	0
109	37	2	-0.8476	1.5397	9.14589	1.0958	0	0	0
110	37	1	0.4238	1.2872	8.27139	0.7997	0	0	0
111	37	1	0.4238	2.3606	9.32665	0.6378	0	0	0
112	38	2	-0.8476	3.90858	11.7294	7.12505	0	0	0
113	38	1	0.4238	4.74569	11.52	6.71075	0	0	0
114	38	1	0.4238	3.69849	12.6087	6.81063	0	0	0
115	39	2	-0.8476	10.4613	2.4581	7.1485	0	0	0
116	39	1	0.4238	10.6933	3.3256	6.8171	0	0	0
117	39	1	0.4238	10.9342	2.3836	7.9774	0	0	0
118	40	2	-0.8476	9.7561	7.9665	1.6503	0	0	0
119	40	1	0.4238	9.3329	8.8044	1.4634	0	0	0
120	40	1	0.4238	10.2803	8.1319	2.434	0	0	0
121	41	2	-0.8476	12.226	11.0442	0.2627	0	0	0
122	41	1	0.4238	12.4381	10.1756	0.6044	0	0	0
123	41	1	0.4238	11.2726	11.042	0.1765	0	0	0
124	42	2	-0.8476	0.5125	12.1769	4.54756	0	0	0
125	42	1	0.4238	1.3954	11.9067	4.295	0	0	0
126	42	1	0.4238	0.5099	13.127	4.43166	0	0	0
127	43	2	-0.8476	6.49519	10.4427	6.403	0	0	0
128	43	1	0.4238	6.31617	9.61251	5.9615	0	0	0
129	43	1	0.4238	6.35186	11.1082	5.7301	0	0	0
130	44	2	-0.8476	6.1794	2.60012	7.63388	0	0	0
131	44	1	0.4238	6.2727	3.54503	7.51277	0	0	0
132	44	1	0.4238	6.4676	2.22207	6.80307	0	0	0
133	45	2	-0.8476	0.2759	5.26238	1.477	0	0	0
134	45	1	0.4238	1.1926	5.39308	1.7192	0	0	0
135	45	1	0.4238	0.0927	5.95864	0.8462	0	0	0
136	46	2	-0.8476	10.1344	6.0819	9.6618	0	0	0
137	46	1	0.4238	10.5785	5.9802	10.5036	0	0	0
138	46	1	0.4238	10.7723	5.7788	9.0157	0	0	0
139	47	2	-0.8476	4.202	8.70492	9.11491	0	0	0
140	47	1	0.4238	3.9541	8.76416	8.19228	0	0	0
141	47	1	0.4238	4.4955	9.58733	9.34166	0	0	0
142	48	2	-0.8476	5.2213	11.4483	9.7686	0	0	0
143	48	1	0.4238	6.1558	11.548	9.95	0	0	0
144	48	1	0.4238	5.1381	11.628	8.8321	0	0	0
145	49	2	-0.8476	5.3071	5.14871	6.0497	0	0	0
146	49	1	0.4238	4.5325	5.56277	6.4301	0	0	0
147	49	1	0.4238	6.0127	5.77846	6.1972	0	0	0
148	50	2	-0.8476	3.12568	11.9122	3.9357	0	0	0
149	50	1	0.4238	3.52741	12.2981	3.1573	0	0	0
150	50	1	0.4238	3.02179	10.9859	3.718	0	0	0
151	51	2	-0.8476	5.59067	2.4327	0.0618	0	0	0
152	51	1	0.4238	6.30872	3.0604	0.1433	0	0	0
153	51	1	0.4238	4.80985	2.9747	-0.0515	0	0	0
154	52	2	-0.8476	4.9136	6.4652	10.6487	0	0	0
155	52	1	0.4238	5.8255	6.2818	10.4226	0	0	0
156	52	1	0.4238	4.5003	6.6899	9.8151	0	0	0
157	53	2	-0.8476	8.5407	4.0922	3.0608	0	0	0
158	53	1	0.4238	8.7664	3.296	3.5417	0	0	0
159	53	1	0.4238	9.1238	4.7619	3.4182	0	0	0
160	54	2	-0.8476	11.7838	4.52145	6.24418	0	0	0
161	54	1	0.4238	12.1534	5.06142	6.94279	0	0	0
162	54	1	0.4238	11.3457	5.14511	5.66511	0	0	0
163	55	2	-0.8476	1.54804	10.5691	7.2695	0	0	0
164	55	1	0.4238	2.44401	10.7892	7.0146	0	0	0
165	55	1	0.4238	1.42573	11.0019	8.1145	0	0	0
166	56	2	-0.8476	9.78381	8.4255	7.0504	0	0	0
167	56	1	0.4238	10.0007	9.3135	6.7662	0	0	0
168	56	1	0.4238	10.4114	8.2368	7.7481	0	0	0
169	57	2	-0.8476	6.2339	7.7978	5.2989	0	0	0
170	57	1	0.4238	7.1836	7.8981	5.2347	0	0	0
171	57	1	0.4238	5.9648	7.4993	4.4302	0	0	0
172	58	2	-0.8476	1.9129	7.71795	11.1209	0	0	0
173	58	1	0.4238	1.7195	6.78686	11.0119	0	0	0
174	58	1	0.4238	2.86	7.78236	10.9975	0	0	0
175	59	2	-0.8476	1.5699	4.3675	10.508	0	0	0
176	59	1	0.4238	1.7291	3.60379	9.95335	0	0	0
177	59	1	0.4238	0.7114	4.20536	10.899	0	0	0
178	60	2	-0.8476	7.47713	9.8768	2.915	0	0	0
179	60	1	0.4238	8.25747	10.3632	3.1809	0	0	0
180	60	1	0.4238	7.16413	10.3336	2.1342	0	0	0
181	61	2	-0.8476	11.3673	1.5579	9.6224	0	0	0
182	61	1	0.4238	12.2537	1.7205	9.2997	0	0	0
183	61	1	0.4238	11.2545	2.1822	10.3391	0	0	0
184	62	2	-0.8476	0.44808	5.81372	8.41766	0	0	0
185	62	1	0.4238	0.40474	6.67628	8.83039	0	0	0
186	62	1	0.4238	0.8661	5.25491	9.07282	0	0	0
187	63	2	-0.8476	6.12044	0.6047	5.2153	0	0	0
188	63	1	0.4238	5.65126	0.6494	4.3822	0	0	0
189	63	1	0.4238	7.01933	0.8518	4.9981	0	0	0
190	64	2	-0.8476	8.5471	5.92237	6.2099	0	0	0
191	64	1	0.4238	9.0306	6.70007	6.4885	0	0	0
192	64	1	0.4238	8.1197	5.60736	7.0064	0	0	0
193	65	2	-0.8476	19.9649	5.69121	8.5306	0	0	0
194	65	1	0.4238	19.8343	6.63015	8.39798	0	0	0
195	65	1	0.4238	20.7772	5.63053	9.03329	0	0	0
196	66	2	-0.8476	13.8898	1.9442	8.8169	0	0	0
197	66	1	0.4238	14.4414	1.289	9.2442	0	0	0
198	66	1	0.4238	14.3682	2.179	8.0218	0	0	0
199	67	2	-0.8476	18.2984	4.61916	3.504	0	0	0
200	67	1	0.4238	19.2327	4.51888	3.3217	0	0	0
201	67	1	0.4238	18.2555	4.80497	4.442	0	0	0
202	68	2	-0.8476	17.2767	2.0052	3.18418	0	0	0
203	68	1	0.4238	17.2404	2.9232	3.45282	0	0	0
204	68	1	0.4238	17.7194	2.0208	2.3356	0	0	0
205	69	2	-0.8476	15.0182	0.3731	0.77141	0	0	0
206	69	1	0.4238	14.1248	0.0324	0.81663	0	0	0
207	69	1	0.4238	15.2449	0.3296	-0.15755	0	0	0
208	70	2	-0.8476	23.7122	3.9811	11.5441	0	0	0
209	70	1	0.4238	23.9624	4.7844	12.0007	0	0	0
210	70	1	0.4238	23.0948	3.5511	12.1358	0	0	0
211	71	2	-0.8476	24.9913	11.0955	9.9385	0	0	0
212	71	1	0.4238	25.2619	10.8002	10.8079	0	0	0
213	71	1	0.4238	24.2849	11.7194	10.1061	0	0	0
214	72	2	-0.8476	19.8398	2.3121	10.2748	0	0	0
215	72	1	0.4238	19.0309	2.0372	10.7063	0	0	0
216	72	1	0.4238	19.6712	2.1797	9.34195	0	0	0
217	73	2	-0.8476	21.8117	10.6423	0.24804	0	0	0
218	73	1	0.4238	21.4664	11.4736	0.57364	0	0	0
219	73	1	0.4238	21.4278	10.548	-0.62373	0	0	0
220	74	2	-0.8476	23.33	8.7494	4.14676	0	0	0
221	74	1	0.4238	22.8304	8.5948	4.94848	0	0	0
222	74	1	0.4238	24.2455	8.6809	4.41751	0	0	0
223	75	2	-0.8476	19.8675	7.0488	0.6726	0	0	0
224	75	1	0.4238	20.6273	7.1131	1.2513	0	0	0
225	75	1	0.4238	19.8192	6.121	0.4423	0	0	0
226	76	2	-0.8476	14.4443	3.45195	4.93519	0	0	0
227	76	1	0.4238	14.1491	2.97761	4.15794	0	0	0
228	76	1	0.4238	13.6369	3.70786	5.38116	0	0	0
229	77	2	-0.8476	17.0275	8.6055	0.2621	0	0	0
230	77	1	0.4238	17.656	8.1192	-0.2716	0	0	0
231	77	1	0.4238	17.2773	9.5228	0.1508	0	0	0
232	78	2	-0.8476	15.286	6.2886	6.94969	0	0	0
233	78	1	0.4238	14.7338	6.0114	7.6807	0	0	0
234	78	1	0.4238	14.7153	6.8384	6.41277	0	0	0
235	79	2	-0.8476	22.0528	2.6567	0.7228	0	0	0
236	79	1	0.4238	22.5674	1.8527	0.7936	0	0	0
237	79	1	0.4238	22.0981	3.0482	1.5951	0	0	0
238	80	2	-0.8476	17.77	11.5143	12.6793	0	0	0
239	80	1	0.4238	17.2578	12.3061	12.8436	0	0	0
240	80	1	0.4238	17.8132	11.4501	11.7252	0	0	0
241	81	2	-0.8476	23.2277	5.5539	3.91969	0	0	0
242	81	1	0.4238	23.1025	6.5027	3.90194	0	0	0
243	81	1	0.4238	23.9916	5.4021	3.36321	0	0	0
244	82	2	-0.8476	17.4621	7.4335	2.9871	0	0	0
245	82	1	0.4238	17.8688	7.7585	2.1839	0	0	0
246	82	1	0.4238	17.1473	6.5586	2.7597	0	0	0
247	83	2	-0.8476	21.9387	11.6906	3.70676	0	0	0
248	83	1	0.4238	22.4306	11.2675	4.41056	0	0	0
249	83	1	0.4238	22.6103	12.0361	3.1187	0	0	0
250	84	2	-0.8476	23.2558	11.1721	6.1454	0	0	0
251	84	1	0.4238	22.9023	11.8403	6.7325	0	0	0
252	84	1	0.4238	24.1689	11.4272	6.0135	0	0	0
253	85	2	-0.8476	20.8802	10.8707	10.1838	0	0	0
254	85	1	0.4238	21.2216	11.3374	9.42097	0	0	0
255	85	1	0.4238	21.0425	9.94698	9.9924	0	0	0
256	86	2	-0.8476	15.1744	9.33059	3.6862	0	0	0
257	86	1	0.4238	14.728	9.18835	2.8514	0	0	0
258	86	1	0.4238	15.9692	8.80062	3.6267	0	0	0
259	87	2	-0.8476	15.343	12.7899	10.3705	0	0	0
260	87	1	0.4238	14.5305	12.2853	10.4079	0	0	0
261	87	1	0.4238	15.9768	12.1949	9.96975	0	0	0
262	88	2	-0.8476	21.0427	1.5143	4.78942	0	0	0
263	88	1	0.4238	21.6268	1.71754	5.52002	0	0	0
264	88	1	0.4238	21.4389	0.75	4.37092	0	0	0
265	89	2	-0.8476	12.6336	8.5767	8.79801	0	0	0
266	89	1	0.4238	13.2207	8.9761	8.15608	0	0	0
267	89	1	0.4238	12.3604	9.3033	9.35804	0	0	0
268	90	2	-0.8476	15.7262	2.01446	6.80114	0	0	0
269	90	1	0.4238	15.4984	2.22876	5.89648	0	0	0
270	90	1	0.4238	16.5509	2.47492	6.95644	0	0	0
271	91	2	-0.8476	13.4565	8.0172	5.34289	0	0	0
272	91	1	0.4238	13.5154	8.7413	5.96623	0	0	0
273	91	1	0.4238	14.0294	8.275	4.62073	0	0	0
274	92	2	-0.8476	20.4649	8.1752	10.5249	0	0	0
275	92	1	0.4238	20.4291	8.1168	11.4796	0	0	0
276	92	1	0.4238	21.2295	7.6535	10.2811	0	0	0
277	93	2	-0.8476	19.935	4.514	12.4115	0	0	0
278	93	1	0.4238	20.3227	4.0568	13.1578	0	0	0
279	93	1	0.4238	20.2389	4.0253	11.6466	0	0	0
280	94	2	-0.8476	16.0913	4.54132	12.3587	0	0	0
281	94	1	0.4238	15.3135	4.45978	11.8068	0	0	0
282	94	1	0.4238	16.5442	5.31467	12.0225	0	0	0
283	95	2	-0.8476	21.7397	0.0331	8.143	0	0	0
284	95	1	0.4238	22.2371	0.7512	8.5345	0	0	0
285	95	1	0.4238	20.9212	0.4371	7.8548	0	0	0
286	96	2	-0.8476	23.4841	0.5991	1.6079	0	0	0
287	96	1	0.4238	23.9712	1.2708	2.0853	0	0	0
288	96	1	0.4238	24.1591	0.0667	1.1871	0	0	0
289	97	2	-0.8476	13.1166	2.301	2.3181	0	0	0
290	97	1	0.4238	13.7903	2.4136	1.6475	0	0	0
291	97	1	0.4238	12.6422	3.1323	2.3236	0	0	0
292	98	2	-0.8476	24.1204	7.08528	11.8079	0	0	0
293	98	1	0.4238	24.586	7.64651	11.1878	0	0	0
294	98	1	0.4238	23.5155	7.67499	12.2579	0	0	0
295	99	2	-0.8476	15.2613	5.4134	2.4785	0	0	0
296	99	1	0.4238	15.8707	4.991	1.8732	0	0	0
297	99	1	0.4238	15.4323	4.9951	3.3222	0	0	0
298	100	2	-0.8476	20.2036	0.5838	0.7699	0	0	0
299	100	1	0.4238	19.3398	0.4025	0.3995	0	0	0
300	100	1	0.4238	20.5283	1.3308	0.2671	0	0	0
301	101	2	-0.8476	13.9713	9.14589	1.0958	0	0	0
302	101	1	0.4238	13.7188	8.27139	0.7997	0	0	0
303	101	1	0.4238	14.7922	9.32665	0.6378	0	0	0
304	102	2	-0.8476	16.3402	11.7294	7.12505	0	0	0
305	102	1	0.4238	17.1773	11.52	6.71075	0	0	0
306	102	1	0.4238	16.1301	12.6087	6.81063	0	0	0
307	103	2	-0.8476	22.8929	2.4581	7.1485	0	0	0
308	103	1	0.4238	23.1249	3.3256	6.8171	0	0	0
309	103	1	0.4238	23.3658	2.3836	7.9774	0	0	0
310	104	2	-0.8476	22.1877	7.9665	1.6503	0	0	0
311	104	1	0.4238	21.7645	8.8044	1.4634	0	0	0
312	104	1	0.4238	22.7119	8.1319	2.434	0	0	0
313	105	2	-0.8476	24.6576	11.0442	0.2627	0	0	0
314	105	1	0.4238	24.8697	10.1756	0.6044	0	0	0
315	105	1	0.4238	23.7042	11.042	0.1765	0	0	0
316	106	2	-0.8476	12.9441	12.1769	4.54756	0	0	0
317	106	1	0.4238	13.827	11.9067	4.295	0	0	0
318	106	1	0.4238	12.9415	13.127	4.43166	0	0	0
319	107	2	-0.8476	18.9268	10.4427	6.403	0	0	0
320	107	1	0.4238	18.7478	9.61251	5.9615	0	0	0
321	107	1	0.4238	18.7835	11.1082	5.7301	0	0	0
322	108	2	-0.8476	18.611	2.60012	7.63388	0	0	0
323	108	1	0.4238	18.7043	3.54503	7.51277	0	0	0
324	108	1	0.4238	18.8992	2.22207	6.80307	0	0	0
325	109	2	-0.8476	12.7075	5.26238	1.477	0	0	0
326	109	1	0.4238	13.6242	5.39308	1.7192	0	0	0
327	109	1	0.4238	12.5243	5.95864	0.8462	0	0	0
328	110	2	-0.8476	22.566	6.0819	9.6618	0	0	0
329	110	1	0.4238	23.0101	5.9802	10.5036	0	0	0
330	110	1	0.4238	23.2039	5.7788	9.0157	0	0	0
331	111	2	-0.8476	16.6336	8.70492	9.11491	0	0	0
332	111	1	0.4238	16.3857	8.76416	8.19228	0	0	0
333	111	1	0.4238	16.9271	9.58733	9.34166	0	0	0
334	112	2	-0.8476	17.6529	11.4483	9.7686	0	0	0
335	112	1	0.4238	18.5874	11.548	9.95	0	0	0
336	112	1	0.4238	17.5697	11.628	8.8321	0	0	0
337	113	2	-0.8476	17.7387	5.14871	6.0497	0	0	0
338	113	1	0.4238	16.9641	5.56277	6.4301	0	0	0
339	113	1	0.4238	18.4443	5.77846	6.1972	0	0	0
340	114	2	-0.8476	15.5573	11.9122	3.9357	0	0	0
341	114	1	0.4238	15.959	12.2981	3.1573	0	0	0
342	114	1	0.4238	15.4534	10.9859	3.718	0	0	0
343	115	2	-0.8476	18.0223	2.4327	0.0618	0	0	0
344	115	1	0.4238	18.7403	3.0604	0.1433	0	0	0
345	115	1	0.4238	17.2415	2.9747	-0.0515	0	0	0
346	116	2	-0.8476	17.3452	6.4652	10.6487	0	0	0
347	116	1	0.4238	18.2571	6.2818	10.4226	0	0	0
348	116	1	0.4238	16.9319	6.6899	9.8151	0	0	0
349	117	2	-0.8476	20.9723	4.0922	3.0608	0	0	0
350	117	1	0.4238	21.198	3.296	3.5417	0	0	0
351	117	1	0.4238	21.5554	4.7619	3.4182	0	0	0
352	118	2	-0.8476	24.2154	4.52145	6.24418	0	0	0
353	118	1	0.4238	24.585	5.06142	6.94279	0	0	0
354	118	1	0.4238	23.7773	5.14511	5.66511	0	0	0
355	119	2	-0.8476	13.9796	10.5691	7.2695	0	0	0
356	119	1	0.4238	14.8756	10.7892	7.0146	0	0	0
357	119	1	0.4238	13.8573	11.0019	8.1145	0	0	0
358	120	2	-0.8476	22.2154	8.4255	7.0504	0	0	0
359	120	1	0.4238	22.4323	9.3135	6.7662	0	0	0
360	120	1	0.4238	22.843	8.2368	7.7481	0	0	0
361	121	2	-0.8476	18.6655	7.7978	5.2989	0	0	0
362	121	1	0.4238	19.6152	7.8981	5.2347	0	0	0
363	121	1	0.4238	18.3964	7.4993	4.4302	0	0	0
364	122	2	-0.8476	14.3445	7.71795	11.1209	0	0	0
365	122	1	0.4238	14.1511	6.78686	11.0119	0	0	0
366	122	1	0.4238	15.2916	7.78236	10.9975	0	0	0
367	123	2	-0.8476	14.0015	4.3675	10.508	0	0	0
368	123	1	0.4238	14.1607	3.60379	9.95335	0	0	0
369	123	1	0.4238	13.143	4.20536	10.899	0	0	0
370	124	2	-0.8476	19.9087	9.8768	2.915	0	0	0
371	124	1	0.4238	20.6891	10.3632	3.1809	0	0	0
372	124	1	0.4238	19.5957	10.3336	2.1342	0	0	0
373	125	2	-0.8476	23.7989	1.5579	9.6224	0	0	0
374	125	1	0.4238	24.6853	1.7205	9.2997	0	0	0
375	125	1	0.4238	23.6861	2.1822	10.3391	0	0	0
376	126	2	-0.8476	12.8797	5.81372	8.41766	0	0	0
377	126	1	0.4238	12.8363	6.67628	8.83039	0	0	0
378	126	1	0.4238	13.2977	5.25491	9.07282	0	0	0
379	127	2	-0.8476	18.552	0.6047	5.2153	0	0	0
380	127	1	0.4238	18.0829	0.6494	4.3822	0	0	0
381	127	1	0.4238	19.4509	0.8518	4.9981	0	0	0
382	128	2	-0.8476	20.9787	5.92237	6.2099	0	0	0
383	128	1	0.4238	21.4622	6.70007	6.4885	0	0	0
384	128	1	0.4238	20.5513	5.60736	7.0064	0	0	0
385	129	2	-0.8476	1.4582	14.3758	8.8169	0	0	0
386	129	1	0.4238	2.0098	13.7206	9.2442	0	0	0
387	129	1	0.4238	1.9366	14.6106	8.0218	0	0	0
388	130	2	-0.8476	5.86677	17.0508	3.504	0	0	0
389	130	1	0.4238	6.80108	16.9505	3.3217	0	0	0
390	130	1	0.4238	5.82391	17.2366	4.442	0	0	0
391	131	2	-0.8476	4.8451	14.4368	3.18418	0	0	0
392	131	1	0.4238	4.8088	15.3548	3.45282	0	0	0
393	131	1	0.4238	5.2878	14.4524	2.3356	0	0	0
394	132	2	-0.8476	2.5866	12.8047	0.77141	0	0	0
395	132	1	0.4238	1.6932	12.464	0.81663	0	0	0
396	132	1	0.4238	2.8133	12.7612	-0.15755	0	0	0
397	133	2	-0.8476	11.2806	16.4127	11.5441	0	0	0
398	133	1	0.4238	11.5308	17.216	12.0007	0	0	0
399	133	1	0.4238	10.6632	15.9827	12.1358	0	0	0
400	134	2	-0.8476	12.5597	23.5271	9.9385	0	0	0
401	134	1	0.4238	12.8303	23.2318	10.8079	0	0	0
402	134	1	0.4238	11.8533	24.151	10.1061	0	0	0
403	135	2	-0.8476	7.40824	14.7437	10.2748	0	0	0
404	135	1	0.4238	6.59927	14.4688	10.7063	0	0	0
405	135	1	0.4238	7.23959	14.6113	9.34195	0	0	0
406	136	2	-0.8476	9.3801	23.0739	0.24804	0	0	0
407	136	1	0.4238	9.0348	23.9052	0.57364	0	0	0
408	136	1	0.4238	8.99624	22.9796	-0.62373	0	0	0
409	137	2	-0.8476	10.8984	21.181	4.14676	0	0	0
410	137	1	0.4238	10.3988	21.0264	4.94848	0	0	0
411	137	1	0.4238	11.8139	21.1125	4.41751	0	0	0
412	138	2	-0.8476	7.4359	19.4804	0.6726	0	0	0
413	138	1	0.4238	8.1957	19.5447	1.2513	0	0	0
414	138	1	0.4238	7.3876	18.5526	0.4423	0	0	0
415	139	2	-0.8476	2.0127	15.8835	4.93519	0	0	0
416	139	1	0.4238	1.7175	15.4092	4.15794	0	0	0
417	139	1	0.4238	1.2053	16.1395	5.38116	0	0	0
418	140	2	-0.8476	4.5959	21.0371	0.2621	0	0	0
419	140	1	0.4238	5.2244	20.5508	-0.2716	0	0	0
420	140	1	0.4238	4.8457	21.9544	0.1508	0	0	0
421	141	2	-0.8476	2.85443	18.7202	6.94969	0	0	0
422	141	1	0.4238	2.3022	18.443	7.6807	0	0	0
423	141	1	0.4238	2.2837	19.27	6.41277	0	0	0
424	142	2	-0.8476	9.62121	15.0883	0.7228	0	0	0
425	142	1	0.4238	10.1358	14.2843	0.7936	0	0	0
426	142	1	0.4238	9.66654	15.4798	1.5951	0	0	0
427	143	2	-0.8476	5.3384	23.9459	12.6793	0	0	0
428	143	1	0.4238	4.8262	24.7377	12.8436	0	0	0
429	143	1	0.4238	5.3816	23.8817	11.7252	0	0	0
430	144	2	-0.8476	10.7961	17.9855	3.91969	0	0	0
431	144	1	0.4238	10.6709	18.9343	3.90194	0	0	0
432	144	1	0.4238	11.56	17.8337	3.36321	0	0	0
433	145	2	-0.8476	5.0305	19.8651	2.9871	0	0	0
434	145	1	0.4238	5.4372	20.1901	2.1839	0	0	0
435	145	1	0.4238	4.7157	18.9902	2.7597	0	0	0
436	146	2	-0.8476	9.50709	24.1222	3.70676	0	0	0
437	146	1	0.4238	9.99897	23.6991	4.41056	0	0	0
438	146	1	0.4238	10.1787	24.4677	3.1187	0	0	0
439	147	2	-0.8476	10.8242	23.6037	6.1454	0	0	0
440	147	1	0.4238	10.4707	24.2719	6.7325	0	0	0
441	147	1	0.4238	11.7373	23.8588	6.0135	0	0	0
442	148	2	-0.8476	8.44857	23.3023	10.1838	0	0	0
443	148	1	0.4238	8.79001	23.769	9.42097	0	0	0
444	148	1	0.4238	8.61091	22.3786	9.9924	0	0	0
445	149	2	-0.8476	2.74275	21.7622	3.6862	0	0	0
446	149	1	0.4238	2.2964	21.62	2.8514	0	0	0
447	149	1	0.4238	3.53763	21.2322	3.6267	0	0	0
448	150	2	-0.8476	2.91139	25.2215	10.3705	0	0	0
449	150	1	0.4238	2.0989	24.7169	10.4079	0	0	0
450	150	1	0.4238	3.54515	24.6265	9.96975	0	0	0
451	151	2	-0.8476	8.61111	13.9459	4.78942	0	0	0
452	151	1	0.4238	9.19518	14.1491	5.52002	0	0	0
453	151	1	0.4238	9.00725	13.1816	4.37092	0	0	0
454	152	2	-0.8476	0.202	21.0083	8.79801	0	0	0
455	152	1	0.4238	0.7891	21.4077	8.15608	0	0	0
456	152	1	0.4238	-0.0712	21.7349	9.35804	0	0	0
457	153	2	-0.8476	3.2946	14.4461	6.80114	0	0	0
458	153	1	0.4238	3.0668	14.6604	5.89648	0	0	0
459	153	1	0.4238	4.1193	14.9065	6.95644	0	0	0
460	154	2	-0.8476	1.0249	20.4488	5.34289	0	0	0
461	154	1	0.4238	1.0838	21.1729	5.96623	0	0	0
462	154	1	0.4238	1.5978	20.7066	4.62073	0	0	0
463	155	2	-0.8476	8.03332	20.6068	10.5249	0	0	0
464	155	1	0.4238	7.99746	20.5484	11.4796	0	0	0
465	155	1	0.4238	8.79792	20.0851	10.2811	0	0	0
466	156	2	-0.8476	7.50344	16.9456	12.4115	0	0	0
467	156	1	0.4238	7.89109	16.4884	13.1578	0	0	0
468	156	1	0.4238	7.80729	16.4569	11.6466	0	0	0
469	157	2	-0.8476	3.65972	16.9729	12.3587	0	0	0
470	157	1	0.4238	2.88191	16.8914	11.8068	0	0	0
471	157	1	0.4238	4.11259	17.7463	12.0225	0	0	0
472	158	2	-0.8476	9.3081	12.4647	8.143	0	0	0
473	158	1	0.4238	9.8055	13.1828	8.5345	0	0	0
474	158	1	0.4238	8.4896	12.8687	7.8548	0	0	0
475	159	2	-0.8476	11.0525	13.0307	1.6079	0	0	0
476	159	1	0.4238	11.5396	13.7024	2.0853	0	0	0
477	159	1	0.4238	11.7275	12.4983	1.1871	0	0	0
478	160	2	-0.8476	0.68504	14.7326	2.3181	0	0	0
479	160	1	0.4238	1.35874	14.8452	1.6475	0	0	0
480	160	1	0.4238	0.21061	15.5639	2.3236	0	0	0
481	161	2	-0.8476	11.6888	19.5169	11.8079	0	0	0
482	161	1	0.4238	12.1544	20.0781	11.1878	0	0	0
483	161	1	0.4238	11.0839	20.1066	12.2579	0	0	0
484	162	2	-0.8476	2.8297	17.845	2.4785	0	0	0
485	162	1	0.4238	3.4391	17.4226	1.8732	0	0	0
486	162	1	0.4238	3.0007	17.4267	3.3222	0	0	0
487	163	2	-0.8476	7.77199	13.0154	0.7699	0	0	0
488	163	1	0.4238	6.90815	12.8341	0.3995	0	0	0
489	163	1	0.4238	8.09665	13.7624	0.2671	0	0	0
490	164	2	-0.8476	1.5397	21.5775	1.0958	0	0	0
491	164	1	0.4238	1.2872	20.703	0.7997	0	0	0
492	164	1	0.4238	2.3606	21.7583	0.6378	0	0	0
493	165	2	-0.8476	3.90858	24.161	7.12505	0	0	0
494	165	1	0.4238	4.74569	23.9516	6.71075	0	0	0
495	165	1	0.4238	3.69849	25.0403	6.81063	0	0	0
496	166	2	-0.8476	10.4613	14.8897	7.1485	0	0	0
497	166	1	0.4238	10.6933	15.7572	6.8171	0	0	0
498	166	1	0.4238	10.9342	14.8152	7.9774	0	0	0
499	167	2	-0.8476	9.7561	20.3981	1.6503	0	0	0
500	167	1	0.4238	9.3329	21.236	1.4634	0	0	0
501	167	1	0.4238	10.2803	20.5635	2.434	0	0	0
502	168	2	-0.8476	12.226	23.4758	0.2627	0	0	0
503	168	1	0.4238	12.4381	22.6072	0.6044	0	0	0
504	168	1	0.4238	11.2726	23.4736	0.1765	0	0	0
505	169	2	-0.8476	0.5125	24.6085	4.54756	0	0	0
506	169	1	0.4238	1.3954	24.3383	4.295	0	0	0
507	169	1	0.4238	0.5099	25.5586	4.43166	0	0	0
508	170	2	-0.8476	6.49519	22.8743	6.403	0	0	0
509	170	1	0.4238	6.31617	22.0441	5.9615	0	0	0
510	170	1	0.4238	6.35186	23.5398	5.7301	0	0	0
511	171	2	-0.8476	6.1794	15.0317	7.63388	0	0	0
512	171	1	0.4238	6.2727	15.9766	7.51277	0	0	0
513	171	1	0.4238	6.4676	14.6537	6.80307	0	0	0
514	172	2	-0.8476	0.2759	17.694	1.477	0	0	0
515	172	1	0.4238	1.1926	17.8247	1.7192	0	0	0
516	172	1	0.4238	0.0927	18.3902	0.8462	0	0	0
517	173	2	-0.8476	10.1344	18.5135	9.6618	0	0	0
518	173	1	0.4238	10.5785	18.4118	10.5036	0	0	0
519	173	1	0.4238	10.7723	18.2104	9.0157	0	0	0
520	174	2	-0.8476	4.202	21.1365	9.11491	0	0	0
521	174	1	0.4238	3.9541	21.1958	8.19228	0	0	0
522	174	1	0.4238	4.4955	22.0189	9.34166	0	0	0
523	175	2	-0.8476	5.2213	23.8799	9.7686	0	0	0
524	175	1	0.4238	6.1558	23.9796	9.95	0	0	0
525	175	1	0.4238	5.1381	24.0596	8.8321	0	0	0
526	176	2	-0.8476	5.3071	17.5803	6.0497	0	0	0
527	176	1	0.4238	4.5325	17.9944	6.4301	0	0	0
528	176	1	0.4238	6.0127	18.2101	6.1972	0	0	0
529	177	2	-0.8476	3.12568	24.3438	3.9357	0	0	0
530	177	1	0.4238	3.52741	24.7297	3.1573	0	0	0
531	177	1	0.4238	3.02179	23.4175	3.718	0	0	0
532	178	2	-0.8476	5.59067	14.8643	0.0618	0	0	0
533	178	1	0.4238	6.30872	15.492	0.1433	0	0	0
534	178	1	0.4238	4.80985	15.4063	-0.0515	0	0	0
535	179	2	-0.8476	4.9136	18.8968	10.6487	0	0	0
536	179	1	0.4238	5.8255	18.7134	10.4226	0	0	0
537	179	1	0.4238	4.5003	19.1215	9.8151	0	0	0
538	180	2	-0.8476	8.5407	16.5238	3.0608	0	0	0
539	180	1	0.4238	8.7664	15.7276	3.5417	0	0	0
540	180	1	0.4238	9.1238	17.1935	3.4182	0	0	0
541	181	2	-0.8476	11.7838	16.9531	6.24418	0	0	0
542	181	1	0.4238	12.1534	17.493	6.94279	0	0	0
543	181	1	0.4238	11.3457	17.5767	5.66511	0	0	0
544	182	2	-0.8476	1.54804	23.0007	7.2695	0	0	0
545	182	1	0.4238	2.44401	23.2208	7.0146	0	0	0
546	182	1	0.4238	1.42573	23.4335	8.1145	0	0	0
547	183	2	-0.8476	9.78381	20.8571	7.0504	0	0	0
548	183	1	0.4238	10.0007	21.7451	6.7662	0	0	0
549	183	1	0.4238	10.4114	20.6684	7.7481	0	0	0
550	184	2	-0.8476	6.2339	20.2294	5.2989	0	0	0
551	184	1	0.4238	7.1836	20.3297	5.2347	0	0	0
552	184	1	0.4238	5.9648	19.9309	4.4302	0	0	0
553	185	2	-0.8476	1.9129	20.1496	11.1209	0	0	0
554	185	1	0.4238	1.7195	19.2185	11.0119	0	0	0
555	185	1	0.4238	2.86	20.214	10.9975	0	0	0
556	186	2	-0.8476	1.5699	16.7991	10.508	0	0	0
557	186	1	0.4238	1.7291	16.0354	9.95335	0	0	0
558	186	1	0.4238	0.7114	16.637	10.899	0	0	0
559	187	2	-0.8476	7.47713	22.3084	2.915	0	0	0
560	187	1	0.4238	8.25747	22.7948	3.1809	0	0	0
561	187	1	0.4238	7.16413	22.7652	2.1342	0	0	0
562	188	2	-0.8476	11.3673	13.9895	9.6224	0	0	0
563	188	1	0.4238	12.2537	14.1521	9.2997	0	0	0
564	188	1	0.4238	11.2545	14.6138	10.3391	0	0	0
565	189	2	-0.8476	0.44808	18.2453	8.41766	0	0	0
566	189	1	0.4238	0.40474	19.1079	8.83039	0	0	0
567	189	1	0.4238	0.8661	17.6865	9.07282	0	0	0
568	190	2	-0.8476	6.12044	13.0363	5.2153	0	0	0
569	190	1	0.4238	5.65126	13.081	4.3822	0	0	0
570	190	1	0.4238	7.01933	13.2834	4.9981	0	0	0
571	191	2	-0.8476	8.5471	18.354	6.2099	0	0	0
572	191	1	0.4238	9.0306	19.1317	6.4885	0	0	0
573	191	1	0.4238	8.1197	18.039	7.0064	0	0	0
574	192	2	-0.8476	19.9649	18.1228	8.5306	0	0	0
575	192	1	0.4238	19.8343	19.0618	8.39798	0	0	0
576	192	1	0.4238	20.7772	18.0621	9.03329	0	0	0
577	193	2	-0.8476	13.8898	14.3758	8.8169	0	0	0
578	193	1	0.4238	14.4414	13.7206	9.2442	0	0	0
579	193	1	0.4238	14.3682	14.6106	8.0218	0	0	0
580	194	2	-0.8476	18.2984	17.0508	3.504	0	0	0
581	194	1	0.4238	19.2327	16.9505	3.3217	0	0	0
582	194	1	0.4238	18.2555	17.2366	4.442	0	0	0
583	195	2	-0.8476	17.2767	14.4368	3.18418	0	0	0
584	195	1	0.4238	17.2404	15.3548	3.45282	0	0	0
585	195	1	0.4238	17.7194	14.4524	2.3356	0	0	0
586	196	2	-0.8476	15.0182	12.8047	0.77141	0	0	0
587	196	1	0.4238	14.1248	12.464	0.81663	0	0	0
588	196	1	0.4238	15.2449	12.7612	-0.15755	0	0	0
589	197	2	-0.8476	23.7122	16.4127	11.5441	0	0	0
590	197	1	0.4238	23.9624	17.216	12.0007	0	0	0
591	197	1	0.4238	23.0948	15.9827	12.1358	0	0	0
592	198	2	-0.8476	24.9913	23.5271	9.9385	0	0	0
593	198	1	0.4238	25.2619	23.2318	10.8079	0	0	0
594	198	1	0.4238	24.2849	24.151	10.1061	0	0	0
595	199	2	-0.8476	19.8398	14.7437	10.2748	0	0	0
596	199	1	0.4238	19.0309	14.4688	10.7063	0	0	0
597	199	1	0.4238	19.6712	14.6113	9.34195	0	0	0
598	200	2	-0.8476	21.8117	23.0739	0.24804	0	0	0
599	200	1	0.4238	21.4664	23.9052	0.57364	0	0	0
600	200	1	0.4238	21.4278	22.9796	-0.62373	0	0	0
601	201	2	-0.8476	23.33	21.181	4.14676	0	0	0
602	201	1	0.4238	22.8304	21.0264	4.94848	0	0	0
603	201	1	0.4238	24.2455	21.1125	4.41751	0	0	0
604	202	2	-0.8476	19.8675	19.4804	0.6726	0	0	0
605	202	1	0.4238	20.6273	19.5447	1.2513	0	0	0
606	202	1	0.4238	19.8192	18.5526	0.4423	0	0	0
607	203	2	-0.8476	14.4443	15.8835	4.93519	0	0	0
608	203	1	0.4238	14.1491	15.4092	4.15794	0	0	0
609	203	1	0.4238	13.6369	16.1395	5.38116	0	0	0
610	204	2	-0.8476	17.0275	21.0371	0.2621	0	0	0
611	204	1	0.4238	17.656	20.5508	-0.2716	0	0	0
612	204	1	0.4238	17.2773	21.9544	0.1508	0	0	0
613	205	2	-0.8476	15.286	18.7202	6.94969	0	0	0
614	205	1	0.4238	14.7338	18.443	7.6807	0	0	0
615	205	1	0.4238	14.7153	19.27	6.41277	0	0	0
616	206	2	-0.8476	22.0528	15.0883	0.7228	0	0	0
617	206	1	0.4238	22.5674	14.2843	0.7936	0	0	0
618	206	1	0.4238	22.0981	15.4798	1.5951	0	0	0
619	207	2	-0.8476	17.77	23.9459	12.6793	0	0	0
620	207	1	0.4238	17.2578	24.7377	12.8436	0	0	0
621	207	1	0.4238	17.8132	23.8817	11.7252	0	0	0
622	208	2	-0.8476	23.2277	17.9855	3.91969	0	0	0
623	208	1	0.4238	23.1025	18.9343	3.90194	0	0	0
624	208	1	0.4238	23.9916	17.8337	3.36321	0	0	0
625	209	2	-0.8476	17.4621	19.8651	2.9871	0	0	0
626	209	1	0.4238	17.8688	20.1901	2.1839	0	0	0
627	209	1	0.4238	17.1473	18.9902	2.7597	0	0	0
628	210	2	-0.8476	21.9387	24.1222	3.70676	0	0	0
629	210	1	0.4238	22.4306	23.6991	4.41056	0	0	0
630	210	1	0.4238	22.6103	24.4677	3.1187	0	0	0
631	211	2	-0.8476	23.2558	23.6037	6.1454	0	0	0
632	211	1	0.4238	22.9023	24.2719	6.7325	0	0	0
633	211	1	0.4238	24.1689	23.8588	6.0135	0	0	0
634	212	2	-0.8476	20.8802	23.3023	10.1838	0	0	0
635	212	1	0.4238	21.2216	23.769	9.42097	0	0	0
636	212	1	0.4238	21.0425	22.3786	9.9924	0	0	0
637	213	2	-0.8476	15.1744	21.7622	3.6862	0	0	0
638	213	1	0.4238	14.728	21.62	2.8514	0	0	0
639	213	1	0.4238	15.9692	21.2322	3.6267	0	0	0
640	214	2	-0.8476	15.343	25.2215	10.3705	0	0	0
641	214	1	0.4238	14.5305	24.7169	10.4079	0	0	0
642	214	1	0.4238	15.9768	24.6265	9.96975	0	0	0
643	215	2	-0.8476	21.0427	13.9459	4.78942	0	0	0
644	215	1	0.4238	21.6268	14.1491	5.52002	0	0	0
645	215	1	0.4238	21.4389	13.1816	4.37092	0	0	0
646	216	2	-0.8476	12.6336	21.0083	8.79801	0	0	0