ITEM: TIMESTEP
0
ITEM: NUMBER OF ATOMS
3
ITEM: BOX BOUNDS xy xz yz pp pp pp
0.0000000000000000e+00 8.8859999999999992e+00 2.2214999999999998e+00
0.0000000000000000e+00 5.1303999999999998e+00 2.2214999999999998e+00
0.0000000000000000e+00 3.6276999999999999e+00 1.2826000000000000e+00
ITEM: ATOMS id element type xu yu zu vx vy vz mol sx sy sz q 
1 C 1 0 0 0 0 0 0 1 1.35967e-05 -8.15844e-06 -4.07964e-06 0.469132 
2 C 2 6.664 3.848 2.721 0 0 0 1 1.90734e-07 3.99659e-07 -4.40815e-07 -0.234566 
3 C 2 2.221 1.283 0.907 0 0 0 1 1.90796e-07 -6.28589e-07 3.26339e-07 -0.234566 
ITEM: TIMESTEP
1
ITEM: NUMBER OF ATOMS
3
ITEM: BOX BOUNDS xy xz yz pp pp pp
0.0000000000000000e+00 8.8859999999999992e+00 2.2214999999999998e+00
0.0000000000000000e+00 5.1303999999999998e+00 2.2214999999999998e+00
0.0000000000000000e+00 3.6276999999999999e+00 1.2826000000000000e+00
ITEM: ATOMS id element type xu yu zu vx vy vz mol sx sy sz q 
1 C 1 0.0470832 -0.0282599 -0.0141196 0 0 0 1 0.00193388 -0.00115258 -0.000585663 0.469124 
2 C 2 6.64044 3.85141 2.73644 0 0 0 1 2.65919e-05 3.87937e-05 -5.05763e-05 -0.234563 
3 C 2 2.19748 1.30785 0.905678 0 0 0 1 2.76176e-05 -7.11027e-05 3.41595e-05 -0.234561 
ITEM: TIMESTEP
2
ITEM: NUMBER OF ATOMS
3
ITEM: BOX BOUNDS xy xz yz pp pp pp
0.0000000000000000e+00 8.8859999999999992e+00 2.2214999999999998e+00
0.0000000000000000e+00 5.1303999999999998e+00 2.2214999999999998e+00
0.0000000000000000e+00 3.6276999999999999e+00 1.2826000000000000e+00
ITEM: ATOMS id element type xu yu zu vx vy vz mol sx sy sz q 
1 C 1 0.147083 -0.088298 -0.0440981 0 0 0 1 0.00611284 -0.00358798 -0.00189906 0.469059 
2 C 2 6.59035 3.8587 2.76924 0 0 0 1 7.67408e-05 0.000124048 -0.000154912 -0.234534 
3 C 2 2.14757 1.3606 0.902858 0 0 0 1 8.71543e-05 -0.000220236 0.000104001 -0.234526 
ITEM: TIMESTEP
3
ITEM: NUMBER OF ATOMS
3
ITEM: BOX BOUNDS xy xz yz pp pp pp
0.0000000000000000e+00 8.8859999999999992e+00 2.2214999999999998e+00
0.0000000000000000e+00 5.1303999999999998e+00 2.2214999999999998e+00
0.0000000000000000e+00 3.6276999999999999e+00 1.2826000000000000e+00
ITEM: ATOMS id element type xu yu zu vx vy vz mol sx sy sz q 
1 C 1 0.247083 -0.14836 -0.0740645 0 0 0 1 0.0100848 -0.00581178 -0.0032485 0.468934 
2 C 2 6.54019 3.86605 2.80206 0 0 0 1 0.000115817 0.000214586 -0.000254478 -0.234481 
3 C 2 2.09772 1.41331 0.900008 0 0 0 1 0.000145113 -0.000365072 0.000170659 -0.234453 
ITEM: TIMESTEP
4
ITEM: NUMBER OF ATOMS
3
ITEM: BOX BOUNDS xy xz yz pp pp pp
0.0000000000000000e+00 8.8859999999999992e+00 2.2214999999999998e+00
0.0000000000000000e+00 5.1303999999999998e+00 2.2214999999999998e+00
0.0000000000000000e+00 3.6276999999999999e+00 1.2826000000000000e+00
ITEM: ATOMS id element type xu yu zu vx vy vz mol sx sy sz q 
1 C 1 0.347083 -0.20847 -0.104009 0 0 0 1 0.0131122 -0.00736911 -0.00444232 0.468756 
2 C 2 6.48992 3.87349 2.83492 0 0 0 1 0.000140286 0.000309857 -0.00034637 -0.23441 
3 C 2 2.048 1.46598 0.897094 0 0 0 1 0.000196767 -0.000499764 0.000233009 -0.234346 
ITEM: TIMESTEP
5
ITEM: NUMBER OF ATOMS
3
ITEM: BOX BOUNDS xy xz yz pp pp pp
0.0000000000000000e+00 8.8859999999999992e+00 2.2214999999999998e+00
0.0000000000000000e+00 5.1303999999999998e+00 2.2214999999999998e+00
0.0000000000000000e+00 3.6276999999999999e+00 1.2826000000000000e+00
ITEM: ATOMS id element type xu yu zu vx vy vz mol sx sy sz q 
1 C 1 0.447083 -0.268721 -0.133898 0 0 0 1 0.015011 -0.00816281 -0.00542905 0.468537 
2 C 2 6.4393 3.88122 2.8679 0 0 0 1 0.000150475 0.000408288 -0.000430069 -0.234328 
3 C 2 1.99862 1.5185 0.894003 0 0 0 1 0.000237264 -0.000620215 0.000291791 -0.234209 
ITEM: TIMESTEP
6
ITEM: NUMBER OF ATOMS
3
ITEM: BOX BOUNDS xy xz yz pp pp pp
0.0000000000000000e+00 8.8859999999999992e+00 2.2214999999999998e+00
0.0000000000000000e+00 5.1303999999999998e+00 2.2214999999999998e+00
0.0000000000000000e+00 3.6276999999999999e+00 1.2826000000000000e+00
ITEM: ATOMS id element type xu yu zu vx vy vz mol sx sy sz q 
1 C 1 0.547083 -0.329624 -0.163546 0 0 0 1 0.0159572 -0.00833004 -0.00628418 0.468287 
2 C 2 6.38725 3.89008 2.90142 0 0 0 1 0.000154059 0.000504811 -0.000508448 -0.234238 
3 C 2 1.95067 1.57055 0.890128 0 0 0 1 0.000261091 -0.000723181 0.000348394 -0.234049 
ITEM: TIMESTEP
7
ITEM: NUMBER OF ATOMS
3
ITEM: BOX BOUNDS xy xz yz pp pp pp
0.0000000000000000e+00 8.8859999999999992e+00 2.2214999999999998e+00
0.0000000000000000e+00 5.1303999999999998e+00 2.2214999999999998e+00
0.0000000000000000e+00 3.6276999999999999e+00 1.2826000000000000e+00
ITEM: ATOMS id element type xu yu zu vx vy vz mol sx sy sz q 
1 C 1 0.647083 -0.408316 -0.185958 0 0 0 1 0.0157634 -0.00801443 -0.0068152 0.468009 
2 C 2 6.30361 3.92218 2.94879 0 0 0 1 0.000291037 0.00053586 -0.000653373 -0.234128 
3 C 2 1.9343 1.61713 0.86517 0 0 0 1 0.00011982 -0.000748206 0.000481241 -0.233881 
ITEM: TIMESTEP
8
ITEM: NUMBER OF ATOMS
3
ITEM: BOX BOUNDS xy xz yz pp pp pp
0.0000000000000000e+00 8.8859999999999992e+00 2.2214999999999998e+00
0.0000000000000000e+00 5.1303999999999998e+00 2.2214999999999998e+00
0.0000000000000000e+00 3.6276999999999999e+00 1.2826000000000000e+00
ITEM: ATOMS id element type xu yu zu vx vy vz mol sx sy sz q 
1 C 1 0.634986 -0.477474 -0.13194 0 0 0 1 0.0142045 -0.00733558 -0.00625478 0.467624 
2 C 2 6.26216 3.90906 2.99477 0 0 0 1 0.000512606 0.000694737 -0.000923931 -0.233912 
3 C 2 1.98785 1.69941 0.76517 0 0 0 1 -0.000146541 -0.000891579 0.000772674 -0.233712 
ITEM: TIMESTEP
9
ITEM: NUMBER OF ATOMS
3
ITEM: BOX BOUNDS xy xz yz pp pp pp
0.0000000000000000e+00 8.8859999999999992e+00 2.2214999999999998e+00
0.0000000000000000e+00 5.1303999999999998e+00 2.2214999999999998e+00
0.0000000000000000e+00 3.6276999999999999e+00 1.2826000000000000e+00
ITEM: ATOMS id element type xu yu zu vx vy vz mol sx sy sz q 
1 C 1 0.539283 -0.522009 -0.0515176 0 0 0 1 0.0120768 -0.00719572 -0.00467209 0.467217 
2 C 2 6.28944 3.8536 3.00716 0 0 0 1 0.000626044 0.000891741 -0.00106884 -0.23369 
3 C 2 2.05628 1.79941 0.672353 0 0 0 1 -0.000319493 -0.00108625 0.000962478 -0.233528 
ITEM: TIMESTEP
10
ITEM: NUMBER OF ATOMS
3
ITEM: BOX BOUNDS xy xz yz pp pp pp
0.0000000000000000e+00 8.8859999999999992e+00 2.2214999999999998e+00
0.0000000000000000e+00 5.1303999999999998e+00 2.2214999999999998e+00
0.0000000000000000e+00 3.6276999999999999e+00 1.2826000000000000e+00
ITEM: ATOMS id element type xu yu zu vx vy vz mol sx sy sz q 
1 C 1 0.505647 -0.602287 -0.00451474 0 0 0 1 0.00967113 -0.00671466 -0.003444 0.466611 
2 C 2 6.26041 3.83388 3.04079 0 0 0 1 0.000840172 0.000971299 -0.00118744 -0.23338 
3 C 2 2.11894 1.89941 0.591727 0 0 0 1 -0.000595949 -0.00115194 0.00111023 -0.233231 
ITEM: TIMESTEP
11
ITEM: NUMBER OF ATOMS
3
ITEM: BOX BOUNDS xy xz yz pp pp pp
0.0000000000000000e+00 8.8859999999999992e+00 2.2214999999999998e+00
0.0000000000000000e+00 5.1303999999999998e+00 2.2214999999999998e+00
0.0000000000000000e+00 3.6276999999999999e+00 1.2826000000000000e+00
ITEM: ATOMS id element type xu yu zu vx vy vz mol sx sy sz q 
1 C 1 0.521565 -0.646199 -0.00199444 0 0 0 1 0.00826585 -0.00583785 -0.00307777 0.466123 
2 C 2 6.20466 3.83042 3.08025 0 0 0 1 0.00106144 0.000984324 -0.00126967 -0.233127 
3 C 2 2.15877 1.94678 0.549743 0 0 0 1 -0.000846909 -0.00114105 0.00119588 -0.232996 
ITEM: TIMESTEP
12
ITEM: NUMBER OF ATOMS
3
ITEM: BOX BOUNDS xy xz yz pp pp pp
0.0000000000000000e+00 8.8859999999999992e+00 2.2214999999999998e+00
0.0000000000000000e+00 5.1303999999999998e+00 2.2214999999999998e+00
0.0000000000000000e+00 3.6276999999999999e+00 1.2826000000000000e+00
ITEM: ATOMS id element type xu yu zu vx vy vz mol sx sy sz q 
1 C 1 0.518146 -0.565275 -0.00852069 0 0 0 1 0.00766398 -0.00467119 -0.00231327 0.465011 
2 C 2 6.10808 3.74152 3.17496 0 0 0 1 0.00149954 0.000981686 -0.00139124 -0.232539 
3 C 2 2.25877 1.95476 0.461562 0 0 0 1 -0.00130294 -0.00110235 0.00133916 -0.232472 
ITEM: TIMESTEP
13
ITEM: NUMBER OF ATOMS
3
ITEM: BOX BOUNDS xy xz yz pp pp pp
0.0000000000000000e+00 8.8859999999999992e+00 2.2214999999999998e+00
0.0000000000000000e+00 5.1303999999999998e+00 2.2214999999999998e+00
0.0000000000000000e+00 3.6276999999999999e+00 1.2826000000000000e+00
ITEM: ATOMS id element type xu yu zu vx vy vz mol sx sy sz q 
1 C 1 0.495611 -0.481244 -0.00722293 0 0 0 1 0.00673691 -0.00370989 -0.000838427 0.46392 
2 C 2 6.03062 3.65516 3.24672 0 0 0 1 0.00182425 0.00093425 -0.00140088 -0.231965 
3 C 2 2.35877 1.95708 0.388504 0 0 0 1 -0.00165311 -0.0010282 0.00138737 -0.231955 
ITEM: TIMESTEP
14
ITEM: NUMBER OF ATOMS
3
ITEM: BOX BOUNDS xy xz yz pp pp pp
0.0000000000000000e+00 8.8859999999999992e+00 2.2214999999999998e+00
0.0000000000000000e+00 5.1303999999999998e+00 2.2214999999999998e+00
0.0000000000000000e+00 3.6276999999999999e+00 1.2826000000000000e+00
ITEM: ATOMS id element type xu yu zu vx vy vz mol sx sy sz q 
1 C 1 0.497786 -0.46456 -0.00978453 0 0 0 1 0.00590472 -0.00321587 0.000143699 0.4633 
2 C 2 5.9761 3.63123 3.28173 0 0 0 1 0.00196438 0.000896787 -0.00137969 -0.231642 
3 C 2 2.41111 1.96433 0.356059 0 0 0 1 -0.00181303 -0.000980952 0.00138413 -0.231658 
ITEM: TIMESTEP
15
ITEM: NUMBER OF ATOMS
3
ITEM: BOX BOUNDS xy xz yz pp pp pp
0.0000000000000000e+00 8.8859999999999992e+00 2.2214999999999998e+00
0.0000000000000000e+00 5.1303999999999998e+00 2.2214999999999998e+00
0.0000000000000000e+00 3.6276999999999999e+00 1.2826000000000000e+00
ITEM: ATOMS id element type xu yu zu vx vy vz mol sx sy sz q 
1 C 1 0.491114 -0.430532 -0.0111627 0 0 0 1 0.00583365 -0.0030822 0.000709054 0.463129 
2 C 2 5.96638 3.60813 3.29369 0 0 0 1 0.0019947 0.000885377 -0.00136534 -0.231548 
3 C 2 2.4275 1.9534 0.345475 0 0 0 1 -0.00184608 -0.000966692 0.00138211 -0.231581 
ITEM: TIMESTEP
16
ITEM: NUMBER OF ATOMS
3
ITEM: BOX BOUNDS xy xz yz pp pp pp
0.0000000000000000e+00 8.8859999999999992e+00 2.2214999999999998e+00
0.0000000000000000e+00 5.1303999999999998e+00 2.2214999999999998e+00
0.0000000000000000e+00 3.6276999999999999e+00 1.2826000000000000e+00
ITEM: ATOMS id element type xu yu zu vx vy vz mol sx sy sz q 
1 C 1 0.492447 -0.431222 -0.0114872 0 0 0 1 0.005642 -0.00301819 0.000684441 0.463081 
2 C 2 5.9631 3.60654 3.29699 0 0 0 1 0.00200159 0.000874544 -0.00135326 -0.231524 
3 C 2 2.42945 1.95568 0.3425 0 0 0 1 -0.0018552 -0.000954542 0.00137066 -0.231557 
ITEM: TIMESTEP
17
ITEM: NUMBER OF ATOMS
3
ITEM: BOX BOUNDS xy xz yz pp pp pp
0.0000000000000000e+00 8.8859999999999992e+00 2.2214999999999998e+00
0.0000000000000000e+00 5.1303999999999998e+00 2.2214999999999998e+00
0.0000000000000000e+00 3.6276999999999999e+00 1.2826000000000000e+00
ITEM: ATOMS id element type xu yu zu vx vy vz mol sx sy sz q 
1 C 1 0.496049 -0.434531 -0.0122587 0 0 0 1 0.00562577 -0.00299497 0.0004609 0.463047 
2 C 2 5.96147 3.60553 3.30134 0 0 0 1 0.00200164 0.000866226 -0.00134314 -0.231508 
3 C 2 2.42749 1.96 0.33892 0 0 0 1 -0.00185582 -0.000944762 0.00135952 -0.231539 
ITEM: TIMESTEP
18
ITEM: NUMBER OF ATOMS
3
ITEM: BOX BOUNDS xy xz yz pp pp pp
0.0000000000000000e+00 8.8859999999999992e+00 2.2214999999999998e+00
0.0000000000000000e+00 5.1303999999999998e+00 2.2214999999999998e+00
0.0000000000000000e+00 3.6276999999999999e+00 1.2826000000000000e+00
ITEM: ATOMS id element type xu yu zu vx vy vz mol sx sy sz q 
1 C 1 0.499533 -0.428343 -0.0139999 0 0 0 1 0.00584468 -0.00301122 0.000470278 0.463083 
2 C 2 5.96786 3.6002 3.30547 0 0 0 1 0.00198624 0.000864241 -0.00133701 -0.231526 
3 C 2 2.4176 1.95914 0.33653 0 0 0 1 -0.00183786 -0.000942959 0.00135197 -0.231558 
ITEM: TIMESTEP
19
ITEM: NUMBER OF ATOMS
3
ITEM: BOX BOUNDS xy xz yz pp pp pp
0.0000000000000000e+00 8.8859999999999992e+00 2.2214999999999998e+00
0.0000000000000000e+00 5.1303999999999998e+00 2.2214999999999998e+00
0.0000000000000000e+00 3.6276999999999999e+00 1.2826000000000000e+00
ITEM: ATOMS id element type xu yu zu vx vy vz mol sx sy sz q 
1 C 1 0.536542 -0.412556 -0.0268892 0 0 0 1 0.00565618 -0.00275226 -5.54975e-06 0.463034 
2 C 2 5.9848 3.56566 3.35329 0 0 0 1 0.00193267 0.000774375 -0.00121224 -0.231502 
3 C 2 2.36365 1.9779 0.301603 0 0 0 1 -0.00178759 -0.000846115 0.0012158 -0.231532 
ITEM: TIMESTEP
20
ITEM: NUMBER OF ATOMS
3
ITEM: BOX BOUNDS xy xz yz pp pp pp
0.0000000000000000e+00 8.8859999999999992e+00 2.2214999999999998e+00
0.0000000000000000e+00 5.1303999999999998e+00 2.2214999999999998e+00
0.0000000000000000e+00 3.6276999999999999e+00 1.2826000000000000e+00
ITEM: ATOMS id element type xu yu zu vx vy vz mol sx sy sz q 
1 C 1 0.611146 -0.411963 -0.0485982 0 0 0 1 0.00461217 -0.00240877 -0.000839006 0.462749 
2 C 2 5.98475 3.50929 3.45329 0 0 0 1 0.00185318 0.000550578 -0.000910504 -0.231364 
3 C 2 2.28911 2.03367 0.223312 0 0 0 1 -0.00173738 -0.00061306 0.00089098 -0.231385 
ITEM: TIMESTEP
21
ITEM: NUMBER OF ATOMS
3
ITEM: BOX BOUNDS xy xz yz pp pp pp
0.0000000000000000e+00 8.8859999999999992e+00 2.2214999999999998e+00
0.0000000000000000e+00 5.1303999999999998e+00 2.2214999999999998e+00
0.0000000000000000e+00 3.6276999999999999e+00 1.2826000000000000e+00
ITEM: ATOMS id element type xu yu zu vx vy vz mol sx sy sz q 
1 C 1 0.612996 -0.410284 -0.0478811 0 0 0 1 0.00415523 -0.00230592 -0.000609244 0.462684 
2 C 2 5.97923 3.50557 3.45849 0 0 0 1 0.00186775 0.000518241 -0.000864205 -0.231333 
3 C 2 2.29278 2.03572 0.217386 0 0 0 1 -0.00175798 -0.00057983 0.000847802 -0.231351 
ITEM: TIMESTEP
22
ITEM: NUMBER OF ATOMS
3
ITEM: BOX BOUNDS xy xz yz pp pp pp
0.0000000000000000e+00 8.8859999999999992e+00 2.2214999999999998e+00
0.0000000000000000e+00 5.1303999999999998e+00 2.2214999999999998e+00
0.0000000000000000e+00 3.6276999999999999e+00 1.2826000000000000e+00
ITEM: ATOMS id element type xu yu zu vx vy vz mol sx sy sz q 
1 C 1 0.623409 -0.395615 -0.045186 0 0 0 1 0.00389465 -0.00219827 -0.000542238 0.462645 
2 C 2 5.98075 3.48953 3.47666 0 0 0 1 0.00184773 0.00047251 -0.000786855 -0.231313 
3 C 2 2.28085 2.03708 0.196529 0 0 0 1 -0.00174515 -0.000530644 0.000775444 -0.231332 
ITEM: TIMESTEP
23
ITEM: NUMBER OF ATOMS
3
ITEM: BOX BOUNDS xy xz yz pp pp pp
0.0000000000000000e+00 8.8859999999999992e+00 2.2214999999999998e+00
0.0000000000000000e+00 5.1303999999999998e+00 2.2214999999999998e+00
0.0000000000000000e+00 3.6276999999999999e+00 1.2826000000000000e+00
ITEM: ATOMS id element type xu yu zu vx vy vz mol sx sy sz q 
1 C 1 0.679457 -0.380517 -0.0301833 0 0 0 1 0.00229954 -0.00174913 -0.000324895 0.462478 
2 C 2 5.9696 3.4417 3.56165 0 0 0 1 0.0018007 0.000246801 -0.000412989 -0.231233 
3 C 2 2.23594 2.06981 0.0965295 0 0 0 1 -0.00174456 -0.00029133 0.000410562 -0.231244 
ITEM: TIMESTEP
24
ITEM: NUMBER OF ATOMS
3
ITEM: BOX BOUNDS xy xz yz pp pp pp
0.0000000000000000e+00 8.8859999999999992e+00 2.2214999999999998e+00
0.0000000000000000e+00 5.1303999999999998e+00 2.2214999999999998e+00
0.0000000000000000e+00 3.6276999999999999e+00 1.2826000000000000e+00
ITEM: ATOMS id element type xu yu zu vx vy vz mol sx sy sz q 
1 C 1 0.69503 -0.3988 -0.0256193 0 0 0 1 0.00138271 -0.00150535 -0.000658422 0.462451 
2 C 2 5.96468 3.44207 3.58107 0 0 0 1 0.00178774 0.00017264 -0.000289076 -0.231227 
3 C 2 2.22529 2.08773 0.072552 0 0 0 1 -0.00174932 -0.000211629 0.000279232 -0.231224 
ITEM: TIMESTEP
25
ITEM: NUMBER OF ATOMS
3
ITEM: BOX BOUNDS xy xz yz pp pp pp
0.0000000000000000e+00 8.8859999999999992e+00 2.2214999999999998e+00
0.0000000000000000e+00 5.1303999999999998e+00 2.2214999999999998e+00
0.0000000000000000e+00 3.6276999999999999e+00 1.2826000000000000e+00
ITEM: ATOMS id element type xu yu zu vx vy vz mol sx sy sz q 
1 C 1 0.701501 -0.400784 -0.0232288 0 0 0 1 0.00119929 -0.00142899 -0.000872323 0.462501 
2 C 2 5.9709 3.43979 3.58827 0 0 0 1 0.00175269 0.000151743 -0.000253894 -0.23125 
3 C 2 2.2126 2.09199 0.0629602 0 0 0 1 -0.00171918 -0.000188262 0.00023951 -0.231251 
ITEM: TIMESTEP
26
ITEM: NUMBER OF ATOMS
3
ITEM: BOX BOUNDS xy xz yz pp pp pp
0.0000000000000000e+00 8.8859999999999992e+00 2.2214999999999998e+00
0.0000000000000000e+00 5.1303999999999998e+00 2.2214999999999998e+00
0.0000000000000000e+00 3.6276999999999999e+00 1.2826000000000000e+00
ITEM: ATOMS id element type xu yu zu vx vy vz mol sx sy sz q 
1 C 1 0.707154 -0.401446 -0.0205868 0 0 0 1 0.00111686 -0.00138706 -0.000785341 0.462514 
2 C 2 5.97101 3.43615 3.59548 0 0 0 1 0.00174595 0.000132863 -0.000223963 -0.23126 
3 C 2 2.20684 2.09629 0.0531092 0 0 0 1 -0.00171659 -0.00016864 0.000208929 -0.231255 
