thermo          1
dump            1 all custom 1 ${sname}.min.lammps id element type xu yu zu vx vy vz mol sx sy sz q
dump            1 all custom 1 BaF.min.lammps id element type xu yu zu vx vy vz mol sx sy sz q
thermo_style    custom step pe ecoul evdwl press pxx pyy pzz pxy pxz pyz
minimize        1.0e-4 1.0e-6 100 1000
WARNING: Resetting reneighboring criteria during minimization (../min.cpp:168)
Neighbor list info ...
  update every 1 steps, delay 0 steps, check yes
  max neighbors/atom: 2000, page size: 100000
  master list distance cutoff = 14.5
  ghost atom cutoff = 14.5
  binsize = 7.25, bins = 2 1 1
  3 neighbor lists, perpetual/occasional/extra = 3 0 0
  (1) pair coul/pqeqgauss, perpetual
      attributes: half, newton off, ghost
      pair build: half/bin/newtoff/ghost
      stencil: half/ghost/bin/3d/newtoff
      bin: standard
  (2) pair morse, perpetual
      attributes: half, newton on
      pair build: half/bin/newton/tri
      stencil: half/bin/3d/newton/tri
      bin: standard
  (3) fix pqeq, perpetual, copy from (1)
      attributes: half, newton off, ghost
      pair build: copy
      stencil: none
      bin: none
Per MPI rank memory allocation (min/avg/max) = 14.87 | 14.87 | 14.87 Mbytes
Step PotEng E_coul E_vdwl Press Pxx Pyy Pzz Pxy Pxz Pyz 
       0   -223.01654   -31.857058   -191.15948   -388491.94    -388481.1   -388528.68   -388466.02  0.015143538  0.019919946    17.001007 
       1   -223.38392   -31.856563   -191.52735   -388697.44   -387817.94   -392939.42   -385334.97    312.65143    408.00443    1761.0486 
       2   -226.56028    -31.85231   -194.70797   -390347.99   -390013.87   -402897.02   -378133.07    2939.2908    3884.4721      4089.52 
       3   -233.01425   -31.843901   -201.17035    -392949.9   -396076.93   -412713.87    -370058.9    7734.9441    10515.151    4665.7296 
       4   -242.72741   -31.831808    -210.8956   -394694.26   -402971.82   -420389.03   -360721.93    13093.103     19027.46    4070.2876 
       5   -255.31097   -31.816821   -223.49415   -391895.77   -404102.41   -422384.78   -349200.12    15127.562    26564.686    3880.2694 
       6   -269.25826   -31.799816   -237.45845    -377212.7   -386170.02   -412002.74   -333465.36    5066.6053    27543.157    7769.3068 
       7   -281.83148   -31.780966   -250.05051   -320033.21   -295213.41   -364494.18   -300392.03   -58718.591    5629.4217     35153.57 
       8   -294.21966   -31.754778   -262.46489   -302315.19   -272892.11   -360668.14   -273385.31   -100571.66    15595.846    62927.707 
       9   -314.91702    -31.72716   -283.18986   -347534.49   -377786.61   -387638.51   -277178.34   -48515.646    68073.267    45821.109 
      10   -337.63493      -31.686   -305.94893   -303697.97   -372651.53   -290628.33   -247814.06    -24181.38    69554.941    17995.405 
      11   -346.31941   -31.652646   -314.66676    -231151.2   -301212.91   -181519.49   -210721.21   -25054.662    40146.324     1631.161 
      12   -365.26272   -31.577631   -333.68509   -220187.33   -299921.33   -166686.96   -193953.69   -47345.445    52506.827    15185.847 
      13   -386.11954   -31.503448   -354.61609   -227803.65   -300927.24   -205447.39    -177036.3   -16761.876    55067.696    11154.841 
      14   -392.69268   -31.460983   -361.23169   -179676.07    -215169.3   -174401.72   -149457.19    -6769.466    17946.011    4382.7176 
      15   -393.87797   -31.449398   -362.42857   -197770.39   -209890.67   -237991.24   -145429.27    14532.805    12000.465    4788.1084 
      16    -393.9576   -31.446356   -362.51124   -191513.52   -200460.56   -231593.15   -142486.85    15627.489    7682.5446    3432.1482 
      17   -394.01101   -31.444166   -362.56685   -184088.49   -192689.69   -219700.08   -139875.71    14567.075    4236.2686    2091.5732 
      18   -394.06752   -31.446617    -362.6209   -196242.56   -208788.24   -237000.75   -142938.69     14646.27    10108.251    4083.0692 
      19   -394.52907   -31.443179    -363.0859   -214913.49   -240844.77   -263486.32   -140409.39    11636.862    15714.369    6040.3142 
      20   -396.40895   -31.423294   -364.98565   -200786.81   -238926.22   -238296.52   -125137.69    5118.1753    5831.6926    2481.8207 
      21   -396.51824   -31.419301   -365.09894   -194613.87   -224859.53   -235572.35   -123409.72    7379.1138    2327.8762    1745.7851 
      22   -396.69753   -31.416865   -365.28067    -209764.7   -239396.44   -267662.84   -122234.83    9999.3309    3905.0753    3168.1053 
      23   -397.56167   -31.405025   -366.15665   -217132.76   -247131.97   -289717.07   -114549.24    7101.7025    1390.1549    2502.0158 
      24   -398.04153   -31.403511   -366.63802    -197690.9   -234557.15    -245505.7   -113009.85    2561.2281     224.6044    979.98505 
      25   -398.09751   -31.407084   -366.69043   -206059.41    -257062.8   -248218.05   -112897.38    172.33096    1431.5047    975.86699 
      26   -398.11598   -31.407689   -366.70829    -207818.6   -262660.43   -248160.41   -112634.96   -583.39854    1431.8263    877.65675 
Loop time of 0.0495958 on 1 procs for 26 steps with 3 atoms

100.8% CPU use with 1 MPI tasks x no OpenMP threads

Minimization stats:
  Stopping criterion = energy tolerance
  Energy initial, next-to-last, final = 
        -223.016536371     -398.097511916     -398.115976106
  Force two-norm initial, final = 0.0720598 11.1611
  Force max component initial, final = 0.0470832 7.50563
  Final line search alpha, max atom move = 0.0092296 0.0692739
  Iterations, force evaluations = 26 38

MPI task timing breakdown:
Section |  min time  |  avg time  |  max time  |%varavg| %total
---------------------------------------------------------------
Pair    | 0.013832   | 0.013832   | 0.013832   |   0.0 | 27.89
Bond    | 2.1458e-06 | 2.1458e-06 | 2.1458e-06 |   0.0 |  0.00
Neigh   | 0.011042   | 0.011042   | 0.011042   |   0.0 | 22.26
Comm    | 0.00042605 | 0.00042605 | 0.00042605 |   0.0 |  0.86
Output  | 0.00096822 | 0.00096822 | 0.00096822 |   0.0 |  1.95
Modify  | 0.02305    | 0.02305    | 0.02305    |   0.0 | 46.47
Other   |            | 0.0002759  |            |       |  0.56

Nlocal:    3 ave 3 max 3 min
Histogram: 1 0 0 0 0 0 0 0 0 0
Nghost:    2184 ave 2184 max 2184 min
Histogram: 1 0 0 0 0 0 0 0 0 0
Neighs:    1807 ave 1807 max 1807 min
Histogram: 1 0 0 0 0 0 0 0 0 0

Total # of neighbors = 1807
Ave neighs/atom = 602.333
Ave special neighs/atom = 0
Neighbor list builds = 1
Dangerous builds = 0


Please see the log.cite file for references relevant to this simulation

Total wall time: 0:00:00
