# Data file generated from xyz2data_pqeq.py by Saber

3       atoms
2  atom types

0.0000 4.4430 xlo xhi
0.0000 3.8478 ylo yhi
0.0000 3.6277 zlo zhi

2.2215 2.2215 1.2826 xy xz yz

Masses

1 137.327000   # Ba
2 18.998403   # F 

Atoms

1 1  1 0.000000 0.000000 0.000000 0.000000 0.000000 0.000000 0.000000
2 1  2 0.000000 6.664000 3.848000 2.721000 0.000000 0.000000 0.000000
3 1  2 0.000000 2.221000 1.283000 0.907000 0.000000 0.000000 0.000000


